Program Version,EnergyPlus, Version 9.2.0-921312fa1d, YMD=2021.12.06 21:52
1,5,Environment Title[],Latitude[deg],Longitude[deg],Time Zone[],Elevation[m]
2,8,Day of Simulation[],Month[],Day of Month[],DST Indicator[1=yes 0=no],Hour[],StartMinute[],EndMinute[],DayType
3,5,Cumulative Day of Simulation[],Month[],Day of Month[],DST Indicator[1=yes 0=no],DayType  ! When Daily Report Variables Requested
4,2,Cumulative Days of Simulation[],Month[]  ! When Monthly Report Variables Requested
5,1,Cumulative Days of Simulation[] ! When Run Period Report Variables Requested
6,1,Calendar Year of Simulation[] ! When Annual Report Variables Requested
7,9,Environment,Site Outdoor Air Drybulb Temperature [C] !Monthly [Value,Min,Day,Hour,Minute,Max,Day,Hour,Minute]
8,1,Environment,Site Outdoor Air Wetbulb Temperature [C] !TimeStep
95,1,THERMAL ZONE: CUBI_1,Zone Air Temperature [C] !Hourly
96,7,THERMAL ZONE: CUBI_1,Zone Air Relative Humidity [%] !Daily [Value,Min,Hour,Minute,Max,Hour,Minute]
135,1,THERMAL ZONE: CUBI_2,Zone Air Temperature [C] !Hourly
136,7,THERMAL ZONE: CUBI_2,Zone Air Relative Humidity [%] !Daily [Value,Min,Hour,Minute,Max,Hour,Minute]
175,1,THERMAL ZONE: CUBI_JORGE,Zone Air Temperature [C] !Hourly
176,7,THERMAL ZONE: CUBI_JORGE,Zone Air Relative Humidity [%] !Daily [Value,Min,Hour,Minute,Max,Hour,Minute]
215,1,THERMAL ZONE: TECHO_1,Zone Air Temperature [C] !Hourly
216,7,THERMAL ZONE: TECHO_1,Zone Air Relative Humidity [%] !Daily [Value,Min,Hour,Minute,Max,Hour,Minute]
255,1,THERMAL ZONE: TECHO_2,Zone Air Temperature [C] !Hourly
256,7,THERMAL ZONE: TECHO_2,Zone Air Relative Humidity [%] !Daily [Value,Min,Hour,Minute,Max,Hour,Minute]
295,1,THERMAL ZONE: TECHO_JORGE,Zone Air Temperature [C] !Hourly
296,7,THERMAL ZONE: TECHO_JORGE,Zone Air Relative Humidity [%] !Daily [Value,Min,Hour,Minute,Max,Hour,Minute]
End of Data Dictionary
1,RUN PERIOD 1,  18.85, -99.14,  -6.00,1280.00
2,1, 5, 3, 0, 1, 0.00,10.00,Wednesday
8,15.551453857809504
2,1, 5, 3, 0, 1,10.00,20.00,Wednesday
8,15.551341657334709
2,1, 5, 3, 0, 1,20.00,30.00,Wednesday
8,15.551141131488416
2,1, 5, 3, 0, 1,30.00,40.00,Wednesday
8,15.388477976376653
2,1, 5, 3, 0, 1,40.00,50.00,Wednesday
8,15.306586238077543
2,1, 5, 3, 0, 1,50.00,60.00,Wednesday
8,15.388878812057376
2,1, 5, 3, 0, 1, 0.00,60.00,Wednesday
95,28.503233047861785
135,28.453321094723923
175,28.584900062758689
215,27.233579249730849
255,27.140336042509746
295,27.471047836761725
2,1, 5, 3, 0, 2, 0.00,10.00,Wednesday
8,15.143756146820773
2,1, 5, 3, 0, 2,10.00,20.00,Wednesday
8,15.224833002983646
2,1, 5, 3, 0, 2,20.00,30.00,Wednesday
8,15.143032792332589
2,1, 5, 3, 0, 2,30.00,40.00,Wednesday
8,15.062181974924576
2,1, 5, 3, 0, 2,40.00,50.00,Wednesday
8,15.142921891712506
2,1, 5, 3, 0, 2,50.00,60.00,Wednesday
8,15.141611257151391
2,1, 5, 3, 0, 2, 0.00,60.00,Wednesday
95,28.31258635487761
135,28.162465271909544
175,28.2089750262121
215,27.005752191175984
255,26.87016441910437
295,27.14448639639021
2,1, 5, 3, 0, 3, 0.00,10.00,Wednesday
8,15.137520067395638
2,1, 5, 3, 0, 3,10.00,20.00,Wednesday
8,14.895974322461563
2,1, 5, 3, 0, 3,20.00,30.00,Wednesday
8,14.895835228343048
2,1, 5, 3, 0, 3,30.00,40.00,Wednesday
8,14.814025125481735
2,1, 5, 3, 0, 3,40.00,50.00,Wednesday
8,14.973131683911776
2,1, 5, 3, 0, 3,50.00,60.00,Wednesday
8,14.80835904908717
2,1, 5, 3, 0, 3, 0.00,60.00,Wednesday
95,28.09766170311707
135,27.863381540027729
175,27.83792772269609
215,26.734460046676877
255,26.559725473723206
295,26.776379413578885
2,1, 5, 3, 0, 4, 0.00,10.00,Wednesday
8,14.808464530288152
2,1, 5, 3, 0, 4,10.00,20.00,Wednesday
8,14.890851798553883
2,1, 5, 3, 0, 4,20.00,30.00,Wednesday
8,14.644033286387196
2,1, 5, 3, 0, 4,30.00,40.00,Wednesday
8,14.561791567834636
2,1, 5, 3, 0, 4,40.00,50.00,Wednesday
8,14.159172251289882
2,1, 5, 3, 0, 4,50.00,60.00,Wednesday
8,14.24176773048506
2,1, 5, 3, 0, 4, 0.00,60.00,Wednesday
95,27.842405300141285
135,27.53411014006687
175,27.430778998594226
215,26.44698741945103
255,26.233304631282818
295,26.391745312538533
2,1, 5, 3, 0, 5, 0.00,10.00,Wednesday
8,14.23319742690719
2,1, 5, 3, 0, 5,10.00,20.00,Wednesday
8,14.221041848974523
2,1, 5, 3, 0, 5,20.00,30.00,Wednesday
8,14.303499826812514
2,1, 5, 3, 0, 5,30.00,40.00,Wednesday
8,14.220722272063318
2,1, 5, 3, 0, 5,40.00,50.00,Wednesday
8,14.468544648108623
2,1, 5, 3, 0, 5,50.00,60.00,Wednesday
8,14.22120468839489
2,1, 5, 3, 0, 5, 0.00,60.00,Wednesday
95,27.58067180979637
135,27.190905089463
175,27.035462695830799
215,26.130849704648428
255,25.880503083900494
295,25.988758678620497
2,1, 5, 3, 0, 6, 0.00,10.00,Wednesday
8,14.52457109151908
2,1, 5, 3, 0, 6,10.00,20.00,Wednesday
8,13.93996501632181
2,1, 5, 3, 0, 6,20.00,30.00,Wednesday
8,14.233214293896257
2,1, 5, 3, 0, 6,30.00,40.00,Wednesday
8,13.869348571340229
2,1, 5, 3, 0, 6,40.00,50.00,Wednesday
8,13.954510406180012
2,1, 5, 3, 0, 6,50.00,60.00,Wednesday
8,13.86976310782085
2,1, 5, 3, 0, 6, 0.00,60.00,Wednesday
95,27.29303991404402
135,26.821105925079313
175,26.614163416456404
215,25.793316351323047
255,25.507408949958248
295,25.560376806300764
2,1, 5, 3, 0, 7, 0.00,10.00,Wednesday
8,13.955390217184088
2,1, 5, 3, 0, 7,10.00,20.00,Wednesday
8,14.065362046439093
2,1, 5, 3, 0, 7,20.00,30.00,Wednesday
8,14.097405389686218
2,1, 5, 3, 0, 7,30.00,40.00,Wednesday
8,13.785365950146265
2,1, 5, 3, 0, 7,40.00,50.00,Wednesday
8,14.01278115470141
2,1, 5, 3, 0, 7,50.00,60.00,Wednesday
8,13.836161250573142
2,1, 5, 3, 0, 7, 0.00,60.00,Wednesday
95,27.03308647240438
135,26.480474008878418
175,26.26823431368632
215,25.440190562038024
255,25.11853253609543
295,25.14246778611682
2,1, 5, 3, 0, 8, 0.00,10.00,Wednesday
8,14.380147198337724
2,1, 5, 3, 0, 8,10.00,20.00,Wednesday
8,14.088219316544447
2,1, 5, 3, 0, 8,20.00,30.00,Wednesday
8,14.442644748223918
2,1, 5, 3, 0, 8,30.00,40.00,Wednesday
8,14.553554990943724
2,1, 5, 3, 0, 8,40.00,50.00,Wednesday
8,14.897405055141685
2,1, 5, 3, 0, 8,50.00,60.00,Wednesday
8,14.96768036440707
2,1, 5, 3, 0, 8, 0.00,60.00,Wednesday
95,26.949850094270123
135,26.322812806045179
175,26.37747519108214
215,25.09342373992206
255,24.735392364036483
295,24.8168678466827
2,1, 5, 3, 0, 9, 0.00,10.00,Wednesday
8,16.084534284863986
2,1, 5, 3, 0, 9,10.00,20.00,Wednesday
8,15.908940852667075
2,1, 5, 3, 0, 9,20.00,30.00,Wednesday
8,15.987729433634302
2,1, 5, 3, 0, 9,30.00,40.00,Wednesday
8,16.04598534602531
2,1, 5, 3, 0, 9,40.00,50.00,Wednesday
8,16.360640757929774
2,1, 5, 3, 0, 9,50.00,60.00,Wednesday
8,16.227055965306076
2,1, 5, 3, 0, 9, 0.00,60.00,Wednesday
95,27.139675363509725
135,26.445652971686575
175,26.94457084321959
215,24.860113482178148
255,24.45754823690959
295,24.691174663522806
2,1, 5, 3, 0,10, 0.00,10.00,Wednesday
8,16.425597228528735
2,1, 5, 3, 0,10,10.00,20.00,Wednesday
8,16.657649938044018
2,1, 5, 3, 0,10,20.00,30.00,Wednesday
8,16.734822756327124
2,1, 5, 3, 0,10,30.00,40.00,Wednesday
8,16.812284457403036
2,1, 5, 3, 0,10,40.00,50.00,Wednesday
8,17.005343351215278
2,1, 5, 3, 0,10,50.00,60.00,Wednesday
8,16.42598673345294
2,1, 5, 3, 0,10, 0.00,60.00,Wednesday
95,27.342408811382545
135,26.649201816257848
175,27.481043185734703
215,24.820644735837154
255,24.38906659341828
295,24.858907917808855
2,1, 5, 3, 0,11, 0.00,10.00,Wednesday
8,16.269366096613419
2,1, 5, 3, 0,11,10.00,20.00,Wednesday
8,17.000714743449615
2,1, 5, 3, 0,11,20.00,30.00,Wednesday
8,16.8286651814921
2,1, 5, 3, 0,11,30.00,40.00,Wednesday
8,16.903409143334245
2,1, 5, 3, 0,11,40.00,50.00,Wednesday
8,16.567578919769458
2,1, 5, 3, 0,11,50.00,60.00,Wednesday
8,16.924488555173526
2,1, 5, 3, 0,11, 0.00,60.00,Wednesday
95,27.571148074835837
135,26.941455817252487
175,28.139656734591669
215,24.930658445428425
255,24.49354972676595
295,25.273284782856299
2,1, 5, 3, 0,12, 0.00,10.00,Wednesday
8,17.38436596010333
2,1, 5, 3, 0,12,10.00,20.00,Wednesday
8,16.587470454218768
2,1, 5, 3, 0,12,20.00,30.00,Wednesday
8,17.611475669832904
2,1, 5, 3, 0,12,30.00,40.00,Wednesday
8,17.014839776584755
2,1, 5, 3, 0,12,40.00,50.00,Wednesday
8,17.28403000859513
2,1, 5, 3, 0,12,50.00,60.00,Wednesday
8,17.47140027560002
2,1, 5, 3, 0,12, 0.00,60.00,Wednesday
95,27.890199843381884
135,27.337940035979345
175,29.041972955096936
215,25.142171019136005
255,24.70697750870328
295,25.84619345039358
2,1, 5, 3, 0,13, 0.00,10.00,Wednesday
8,18.105587514437983
2,1, 5, 3, 0,13,10.00,20.00,Wednesday
8,17.922266239540126
2,1, 5, 3, 0,13,20.00,30.00,Wednesday
8,17.538895725809714
2,1, 5, 3, 0,13,30.00,40.00,Wednesday
8,17.679645443270034
2,1, 5, 3, 0,13,40.00,50.00,Wednesday
8,17.25937754212511
2,1, 5, 3, 0,13,50.00,60.00,Wednesday
8,17.672567674795596
2,1, 5, 3, 0,13, 0.00,60.00,Wednesday
95,28.248315551447076
135,27.769914160214286
175,29.92738029643645
215,25.462359365575407
255,25.049608604055725
295,26.48626459762686
2,1, 5, 3, 0,14, 0.00,10.00,Wednesday
8,17.877908782680437
2,1, 5, 3, 0,14,10.00,20.00,Wednesday
8,18.27061245135181
2,1, 5, 3, 0,14,20.00,30.00,Wednesday
8,18.130556233782455
2,1, 5, 3, 0,14,30.00,40.00,Wednesday
8,17.738630972433709
2,1, 5, 3, 0,14,40.00,50.00,Wednesday
8,18.30269933203036
2,1, 5, 3, 0,14,50.00,60.00,Wednesday
8,18.780949371998383
2,1, 5, 3, 0,14, 0.00,60.00,Wednesday
95,28.602347370158229
135,28.237148364291604
175,30.61801623621194
215,25.891499595020595
255,25.53214299383099
295,27.159650309864316
2,1, 5, 3, 0,15, 0.00,10.00,Wednesday
8,17.87348433688188
2,1, 5, 3, 0,15,10.00,20.00,Wednesday
8,18.025890934353837
2,1, 5, 3, 0,15,20.00,30.00,Wednesday
8,18.298112645330776
2,1, 5, 3, 0,15,30.00,40.00,Wednesday
8,18.362939717583456
2,1, 5, 3, 0,15,40.00,50.00,Wednesday
8,18.09646727497999
2,1, 5, 3, 0,15,50.00,60.00,Wednesday
8,18.36633539667435
2,1, 5, 3, 0,15, 0.00,60.00,Wednesday
95,29.014477954089768
135,28.84190590652145
175,31.24348639034942
215,26.385401880882229
255,26.13719098736855
295,27.79107695163664
2,1, 5, 3, 0,16, 0.00,10.00,Wednesday
8,18.492763882764188
2,1, 5, 3, 0,16,10.00,20.00,Wednesday
8,18.567589048826084
2,1, 5, 3, 0,16,20.00,30.00,Wednesday
8,18.09413197715125
2,1, 5, 3, 0,16,30.00,40.00,Wednesday
8,18.091251873788019
2,1, 5, 3, 0,16,40.00,50.00,Wednesday
8,17.66630739206459
2,1, 5, 3, 0,16,50.00,60.00,Wednesday
8,17.5522794612126
2,1, 5, 3, 0,16, 0.00,60.00,Wednesday
95,29.423773130566805
135,29.568596427102365
175,31.710846482706847
215,26.957505530600327
255,26.871256637112528
295,28.363905530478676
2,1, 5, 3, 0,17, 0.00,10.00,Wednesday
8,18.67787861679875
2,1, 5, 3, 0,17,10.00,20.00,Wednesday
8,17.492589763076479
2,1, 5, 3, 0,17,20.00,30.00,Wednesday
8,15.973554247795642
2,1, 5, 3, 0,17,30.00,40.00,Wednesday
8,16.39863773818785
2,1, 5, 3, 0,17,40.00,50.00,Wednesday
8,15.975400546780245
2,1, 5, 3, 0,17,50.00,60.00,Wednesday
8,16.537080416494566
2,1, 5, 3, 0,17, 0.00,60.00,Wednesday
95,29.37112199527132
135,29.89432305295534
175,31.248455558962254
215,27.518329545673834
255,27.559139581369366
295,28.6292052063009
2,1, 5, 3, 0,18, 0.00,10.00,Wednesday
8,17.413568262814235
2,1, 5, 3, 0,18,10.00,20.00,Wednesday
8,17.877267495404259
2,1, 5, 3, 0,18,20.00,30.00,Wednesday
8,17.298168922012505
2,1, 5, 3, 0,18,30.00,40.00,Wednesday
8,17.238544881284559
2,1, 5, 3, 0,18,40.00,50.00,Wednesday
8,17.411209407413059
2,1, 5, 3, 0,18,50.00,60.00,Wednesday
8,18.26083701589071
2,1, 5, 3, 0,18, 0.00,60.00,Wednesday
95,29.373365559629318
135,30.08198778978668
175,30.983070583487828
215,27.845072435459355
255,27.934532625388046
295,28.790504180640324
2,1, 5, 3, 0,19, 0.00,10.00,Wednesday
8,18.106504349580669
2,1, 5, 3, 0,19,10.00,20.00,Wednesday
8,18.130963743935774
2,1, 5, 3, 0,19,20.00,30.00,Wednesday
8,18.260033075273005
2,1, 5, 3, 0,19,30.00,40.00,Wednesday
8,18.510726053614574
2,1, 5, 3, 0,19,40.00,50.00,Wednesday
8,18.35456664906671
2,1, 5, 3, 0,19,50.00,60.00,Wednesday
8,18.275901701402739
2,1, 5, 3, 0,19, 0.00,60.00,Wednesday
95,29.406480664066465
135,30.079997803959946
175,30.88476845993667
215,27.92153471899584
255,28.010952441275223
295,28.781920519429439
2,1, 5, 3, 0,20, 0.00,10.00,Wednesday
8,18.395843731157848
2,1, 5, 3, 0,20,10.00,20.00,Wednesday
8,18.546450455915826
2,1, 5, 3, 0,20,20.00,30.00,Wednesday
8,18.416212247884496
2,1, 5, 3, 0,20,30.00,40.00,Wednesday
8,18.524072153132818
2,1, 5, 3, 0,20,40.00,50.00,Wednesday
8,18.2809353978119
2,1, 5, 3, 0,20,50.00,60.00,Wednesday
8,18.03807785993693
2,1, 5, 3, 0,20, 0.00,60.00,Wednesday
95,29.277068817873574
135,29.874754719142076
175,30.474284944557956
215,27.934168625255855
255,28.007803039530633
295,28.677662398728164
2,1, 5, 3, 0,21, 0.00,10.00,Wednesday
8,17.611833175799846
2,1, 5, 3, 0,21,10.00,20.00,Wednesday
8,17.101574985785378
2,1, 5, 3, 0,21,20.00,30.00,Wednesday
8,17.134913313455639
2,1, 5, 3, 0,21,30.00,40.00,Wednesday
8,16.868117359066976
2,1, 5, 3, 0,21,40.00,50.00,Wednesday
8,17.215036465325757
2,1, 5, 3, 0,21,50.00,60.00,Wednesday
8,16.790569324118239
2,1, 5, 3, 0,21, 0.00,60.00,Wednesday
95,29.141825972015579
135,29.620632396953835
175,30.094940674117763
215,27.865205397243856
255,27.90132172692312
295,28.515162084812613
2,1, 5, 3, 0,22, 0.00,10.00,Wednesday
8,16.947512915093357
2,1, 5, 3, 0,22,10.00,20.00,Wednesday
8,17.165744374427069
2,1, 5, 3, 0,22,20.00,30.00,Wednesday
8,16.506303404613687
2,1, 5, 3, 0,22,30.00,40.00,Wednesday
8,16.50686240218422
2,1, 5, 3, 0,22,40.00,50.00,Wednesday
8,16.58631124954087
2,1, 5, 3, 0,22,50.00,60.00,Wednesday
8,16.611896233041589
2,1, 5, 3, 0,22, 0.00,60.00,Wednesday
95,29.010430483758616
135,29.33039724362587
175,29.752315706627227
215,27.736833718076654
255,27.737907232162639
295,28.295147379999567
2,1, 5, 3, 0,23, 0.00,10.00,Wednesday
8,16.16726578895277
2,1, 5, 3, 0,23,10.00,20.00,Wednesday
8,16.183332648534035
2,1, 5, 3, 0,23,20.00,30.00,Wednesday
8,16.482093079346816
2,1, 5, 3, 0,23,30.00,40.00,Wednesday
8,16.273597025284319
2,1, 5, 3, 0,23,40.00,50.00,Wednesday
8,15.907120528940938
2,1, 5, 3, 0,23,50.00,60.00,Wednesday
8,15.76525211529764
2,1, 5, 3, 0,23, 0.00,60.00,Wednesday
95,28.880330286068994
135,29.06333694474628
175,29.42978642625246
215,27.580655242297593
255,27.552950732017569
295,28.04514985519711
2,1, 5, 3, 0,24, 0.00,10.00,Wednesday
8,15.84181482484228
2,1, 5, 3, 0,24,10.00,20.00,Wednesday
8,15.652435718586
2,1, 5, 3, 0,24,20.00,30.00,Wednesday
8,15.843085857268405
2,1, 5, 3, 0,24,30.00,40.00,Wednesday
8,15.7283749704226
2,1, 5, 3, 0,24,40.00,50.00,Wednesday
8,15.536073378855662
2,1, 5, 3, 0,24,50.00,60.00,Wednesday
8,15.61280390914966
2,1, 5, 3, 0,24, 0.00,60.00,Wednesday
95,28.776605165299704
135,28.835777366519648
175,29.15613636161757
215,27.40941331116568
255,27.35062789001033
295,27.79165145069715
3,1, 5, 3, 0,Wednesday
96,34.92292845651367,32.54846624742039,16,50,37.977004357490169, 8,20
136,35.211806262091858,31.31259290131921,18,60,39.3799103485187, 8,30
176,33.7885011172768,28.59591118199066,16,40,39.591118593238039, 7,60
216,38.914164248452149,35.55926590306393,20,20,43.041926093392479,10,20
256,39.371312869463277,35.38853678158198,20,20,44.15851963134026,10,20
296,37.92293170151679,33.76409281757328,18,60,43.37579903939352, 9,40
2,2, 5, 4, 0, 1, 0.00,10.00,Thursday
8,16.032217382829
2,2, 5, 4, 0, 1,10.00,20.00,Thursday
8,15.537404076692644
2,2, 5, 4, 0, 1,20.00,30.00,Thursday
8,15.646594622879359
2,2, 5, 4, 0, 1,30.00,40.00,Thursday
8,15.779471805268847
2,2, 5, 4, 0, 1,40.00,50.00,Thursday
8,15.67554074784914
2,2, 5, 4, 0, 1,50.00,60.00,Thursday
8,15.491962996864214
2,2, 5, 4, 0, 1, 0.00,60.00,Thursday
95,28.629453577768996
135,28.584792309078137
175,28.81572771719249
215,27.246466465446898
255,27.152956422503107
295,27.52781244658092
2,2, 5, 4, 0, 2, 0.00,10.00,Thursday
8,15.492319967793233
2,2, 5, 4, 0, 2,10.00,20.00,Thursday
8,15.414190273976429
2,2, 5, 4, 0, 2,20.00,30.00,Thursday
8,15.675127511968523
2,2, 5, 4, 0, 2,30.00,40.00,Thursday
8,15.414366537942929
2,2, 5, 4, 0, 2,40.00,50.00,Thursday
8,15.414014307196691
2,2, 5, 4, 0, 2,50.00,60.00,Thursday
8,15.336888599377512
2,2, 5, 4, 0, 2, 0.00,60.00,Thursday
95,28.487574880611914
135,28.361223702202918
175,28.538224512548969
215,27.080301632483825
255,26.949437342987264
295,27.27128023396999
2,2, 5, 4, 0, 3, 0.00,10.00,Thursday
8,15.363728740322616
2,2, 5, 4, 0, 3,10.00,20.00,Thursday
8,15.230966590427649
2,2, 5, 4, 0, 3,20.00,30.00,Thursday
8,15.171309360293919
2,2, 5, 4, 0, 3,30.00,40.00,Thursday
8,15.186282568805315
2,2, 5, 4, 0, 3,40.00,50.00,Thursday
8,15.278816355868747
2,2, 5, 4, 0, 3,50.00,60.00,Thursday
8,15.04754967894262
2,2, 5, 4, 0, 3, 0.00,60.00,Thursday
95,28.276463885343888
135,28.07644087531621
175,28.15179146575989
215,26.905521157680498
255,26.738965306294543
295,26.99027760570614
2,2, 5, 4, 0, 4, 0.00,10.00,Thursday
8,15.053486454727198
2,2, 5, 4, 0, 4,10.00,20.00,Thursday
8,15.448778819927055
2,2, 5, 4, 0, 4,20.00,30.00,Thursday
8,15.042624816412147
2,2, 5, 4, 0, 4,30.00,40.00,Thursday
8,15.033556378098373
2,2, 5, 4, 0, 4,40.00,50.00,Thursday
8,14.485214102876816
2,2, 5, 4, 0, 4,50.00,60.00,Thursday
8,15.125544340606386
2,2, 5, 4, 0, 4, 0.00,60.00,Thursday
95,27.988631132442398
135,27.71166576682752
175,27.642943374523076
215,26.697105104539433
255,26.496939381869596
295,26.664100351148709
2,2, 5, 4, 0, 5, 0.00,10.00,Thursday
8,14.712674299416
2,2, 5, 4, 0, 5,10.00,20.00,Thursday
8,14.473728325941364
2,2, 5, 4, 0, 5,20.00,30.00,Thursday
8,14.644391307540774
2,2, 5, 4, 0, 5,30.00,40.00,Thursday
8,14.802655243139457
2,2, 5, 4, 0, 5,40.00,50.00,Thursday
8,14.62942904325202
2,2, 5, 4, 0, 5,50.00,60.00,Thursday
8,14.31036297063091
2,2, 5, 4, 0, 5, 0.00,60.00,Thursday
95,27.753287833769254
135,27.407180947462338
175,27.276778427018045
215,26.414435299991529
255,26.18067239458155
295,26.29798471787744
2,2, 5, 4, 0, 6, 0.00,10.00,Thursday
8,14.70143460791386
2,2, 5, 4, 0, 6,10.00,20.00,Thursday
8,14.520678818929957
2,2, 5, 4, 0, 6,20.00,30.00,Thursday
8,14.587681385750879
2,2, 5, 4, 0, 6,30.00,40.00,Thursday
8,14.398998401926674
2,2, 5, 4, 0, 6,40.00,50.00,Thursday
8,14.251397752162989
2,2, 5, 4, 0, 6,50.00,60.00,Thursday
8,14.437118175711309
2,2, 5, 4, 0, 6, 0.00,60.00,Thursday
95,27.481688394029836
135,27.059036311928769
175,26.867647865782673
215,26.091512377394819
255,25.823859214153545
295,25.890422688655293
2,2, 5, 4, 0, 7, 0.00,10.00,Thursday
8,14.369425938963945
2,2, 5, 4, 0, 7,10.00,20.00,Thursday
8,14.228605274294474
2,2, 5, 4, 0, 7,20.00,30.00,Thursday
8,14.619455314729312
2,2, 5, 4, 0, 7,30.00,40.00,Thursday
8,14.454058246816265
2,2, 5, 4, 0, 7,40.00,50.00,Thursday
8,14.311867834036607
2,2, 5, 4, 0, 7,50.00,60.00,Thursday
8,14.467293520970332
2,2, 5, 4, 0, 7, 0.00,60.00,Thursday
95,27.287970127786598
135,26.785833561826349
175,26.648855204600637
215,25.75196828857366
255,25.450041203867248
295,25.501938235653566
2,2, 5, 4, 0, 8, 0.00,10.00,Thursday
8,14.621156514024449
2,2, 5, 4, 0, 8,10.00,20.00,Thursday
8,14.715835117674433
2,2, 5, 4, 0, 8,20.00,30.00,Thursday
8,14.888777673767966
2,2, 5, 4, 0, 8,30.00,40.00,Thursday
8,15.217444822937905
2,2, 5, 4, 0, 8,40.00,50.00,Thursday
8,14.975377688993806
2,2, 5, 4, 0, 8,50.00,60.00,Thursday
8,15.032012770818904
2,2, 5, 4, 0, 8, 0.00,60.00,Thursday
95,27.195968913696836
135,26.626642588681134
175,26.69982273312513
215,25.445963283398496
255,25.10986683369749
295,25.199400495891294
2,2, 5, 4, 0, 9, 0.00,10.00,Thursday
8,15.50779511247116
2,2, 5, 4, 0, 9,10.00,20.00,Thursday
8,15.212751646814045
2,2, 5, 4, 0, 9,20.00,30.00,Thursday
8,15.386446401604453
2,2, 5, 4, 0, 9,30.00,40.00,Thursday
8,15.846111184880409
2,2, 5, 4, 0, 9,40.00,50.00,Thursday
8,15.960067121910031
2,2, 5, 4, 0, 9,50.00,60.00,Thursday
8,16.037740860325337
2,2, 5, 4, 0, 9, 0.00,60.00,Thursday
95,27.321261618736004
135,26.69921687311535
175,27.113268837891238
215,25.23474514596438
255,24.86520589786569
295,25.04768391682551
2,2, 5, 4, 0,10, 0.00,10.00,Thursday
8,15.6936219861432
2,2, 5, 4, 0,10,10.00,20.00,Thursday
8,15.541343518867944
2,2, 5, 4, 0,10,20.00,30.00,Thursday
8,15.734543360773533
2,2, 5, 4, 0,10,30.00,40.00,Thursday
8,15.467208297897495
2,2, 5, 4, 0,10,40.00,50.00,Thursday
8,15.810667157403126
2,2, 5, 4, 0,10,50.00,60.00,Thursday
8,15.843905632386019
2,2, 5, 4, 0,10, 0.00,60.00,Thursday
95,27.39155372842343
135,26.782120587775084
175,27.373260798713447
215,25.170676172728546
255,24.783033600527259
295,25.05015232466093
2,2, 5, 4, 0,11, 0.00,10.00,Thursday
8,16.021217027985736
2,2, 5, 4, 0,11,10.00,20.00,Thursday
8,16.24597389807649
2,2, 5, 4, 0,11,20.00,30.00,Thursday
8,16.26568367102298
2,2, 5, 4, 0,11,30.00,40.00,Thursday
8,16.20722453968999
2,2, 5, 4, 0,11,40.00,50.00,Thursday
8,16.649035705115005
2,2, 5, 4, 0,11,50.00,60.00,Thursday
8,16.51182393092556
2,2, 5, 4, 0,11, 0.00,60.00,Thursday
95,27.597353766565126
135,27.055764991587965
175,27.887948163559459
215,25.209098082320069
255,24.82323710766624
295,25.226877400730058
2,2, 5, 4, 0,12, 0.00,10.00,Thursday
8,16.578901335697084
2,2, 5, 4, 0,12,10.00,20.00,Thursday
8,17.223993440697826
2,2, 5, 4, 0,12,20.00,30.00,Thursday
8,17.25681002169435
2,2, 5, 4, 0,12,30.00,40.00,Thursday
8,17.491656605887017
2,2, 5, 4, 0,12,40.00,50.00,Thursday
8,17.72649884713628
2,2, 5, 4, 0,12,50.00,60.00,Thursday
8,17.34859164291489
2,2, 5, 4, 0,12, 0.00,60.00,Thursday
95,28.00210520172084
135,27.54020525566247
175,28.649816763774028
215,25.34607528978916
255,24.97368777769435
295,25.600402907421456
2,2, 5, 4, 0,13, 0.00,10.00,Thursday
8,17.32460979665721
2,2, 5, 4, 0,13,10.00,20.00,Thursday
8,17.956240643112769
2,2, 5, 4, 0,13,20.00,30.00,Thursday
8,17.848842830515819
2,2, 5, 4, 0,13,30.00,40.00,Thursday
8,17.41590293983548
2,2, 5, 4, 0,13,40.00,50.00,Thursday
8,17.415700165794094
2,2, 5, 4, 0,13,50.00,60.00,Thursday
8,17.481572314505489
2,2, 5, 4, 0,13, 0.00,60.00,Thursday
95,28.372300006638868
135,28.00215250804173
175,29.40209264981362
215,25.633750373576594
255,25.278685018035277
295,26.166039653470425
2,2, 5, 4, 0,14, 0.00,10.00,Thursday
8,17.8906217219713
2,2, 5, 4, 0,14,10.00,20.00,Thursday
8,17.62978280349689
2,2, 5, 4, 0,14,20.00,30.00,Thursday
8,17.560055592751696
2,2, 5, 4, 0,14,30.00,40.00,Thursday
8,17.56036703686657
2,2, 5, 4, 0,14,40.00,50.00,Thursday
8,17.29737581796852
2,2, 5, 4, 0,14,50.00,60.00,Thursday
8,17.696865814916867
2,2, 5, 4, 0,14, 0.00,60.00,Thursday
95,28.706628858401549
135,28.493512304714988
175,30.072092781461863
215,26.0474849279893
255,25.74710537336941
295,26.78897795973123
2,2, 5, 4, 0,15, 0.00,10.00,Thursday
8,17.963224393929126
2,2, 5, 4, 0,15,10.00,20.00,Thursday
8,17.360323387142367
2,2, 5, 4, 0,15,20.00,30.00,Thursday
8,17.360007449440624
2,2, 5, 4, 0,15,30.00,40.00,Thursday
8,17.291551867297195
2,2, 5, 4, 0,15,40.00,50.00,Thursday
8,17.882736292496888
2,2, 5, 4, 0,15,50.00,60.00,Thursday
8,17.550487934070988
2,2, 5, 4, 0,15, 0.00,60.00,Thursday
95,29.066521054441343
135,29.03970539440461
175,30.5661789279786
215,26.50923077902733
255,26.29141960259992
295,27.360901206133876
2,2, 5, 4, 0,16, 0.00,10.00,Thursday
8,17.821607587729028
2,2, 5, 4, 0,16,10.00,20.00,Thursday
8,18.355015006467668
2,2, 5, 4, 0,16,20.00,30.00,Thursday
8,17.942487468971995
2,2, 5, 4, 0,16,30.00,40.00,Thursday
8,17.791352702201946
2,2, 5, 4, 0,16,40.00,50.00,Thursday
8,17.875748210589767
2,2, 5, 4, 0,16,50.00,60.00,Thursday
8,17.47815192912298
2,2, 5, 4, 0,16, 0.00,60.00,Thursday
95,29.497725695497594
135,29.711956125907908
175,31.145940671336406
215,26.980180012383415
255,26.89210098944965
295,27.945340196252564
2,2, 5, 4, 0,17, 0.00,10.00,Thursday
8,17.789097608287393
2,2, 5, 4, 0,17,10.00,20.00,Thursday
8,18.26972542866572
2,2, 5, 4, 0,17,20.00,30.00,Thursday
8,18.217559589691175
2,2, 5, 4, 0,17,30.00,40.00,Thursday
8,18.084052527532746
2,2, 5, 4, 0,17,40.00,50.00,Thursday
8,17.883847483434289
2,2, 5, 4, 0,17,50.00,60.00,Thursday
8,17.749646979910957
2,2, 5, 4, 0,17, 0.00,60.00,Thursday
95,29.732484074891834
135,30.273626285080629
175,31.37122211003108
215,27.46526519604173
255,27.509528261724979
295,28.365430841513886
2,2, 5, 4, 0,18, 0.00,10.00,Thursday
8,17.614398632643554
2,2, 5, 4, 0,18,10.00,20.00,Thursday
8,17.615040382447249
2,2, 5, 4, 0,18,20.00,30.00,Thursday
8,17.68175319241165
2,2, 5, 4, 0,18,30.00,40.00,Thursday
8,17.746547739138316
2,2, 5, 4, 0,18,40.00,50.00,Thursday
8,17.88155167307833
2,2, 5, 4, 0,18,50.00,60.00,Thursday
8,17.61396909836756
2,2, 5, 4, 0,18, 0.00,60.00,Thursday
95,29.89079702943525
135,30.723464944753557
175,31.44725527657111
215,27.880469326081124
255,28.017784204610565
295,28.712581156583594
2,2, 5, 4, 0,19, 0.00,10.00,Thursday
8,17.547643317228056
2,2, 5, 4, 0,19,10.00,20.00,Thursday
8,17.41514972730026
2,2, 5, 4, 0,19,20.00,30.00,Thursday
8,17.414452263359743
2,2, 5, 4, 0,19,30.00,40.00,Thursday
8,17.61168482171729
2,2, 5, 4, 0,19,40.00,50.00,Thursday
8,17.47800606934117
2,2, 5, 4, 0,19,50.00,60.00,Thursday
8,17.344123497364867
2,2, 5, 4, 0,19, 0.00,60.00,Thursday
95,30.000021381045856
135,30.972905277163546
175,31.454126183183136
215,28.219182464922399
255,28.398018317637299
295,28.97201843952359
2,2, 5, 4, 0,20, 0.00,10.00,Thursday
8,17.330680463983094
2,2, 5, 4, 0,20,10.00,20.00,Thursday
8,17.3066015135782
2,2, 5, 4, 0,20,20.00,30.00,Thursday
8,17.447124701941094
2,2, 5, 4, 0,20,30.00,40.00,Thursday
8,17.56407845936334
2,2, 5, 4, 0,20,40.00,50.00,Thursday
8,17.507447959826924
2,2, 5, 4, 0,20,50.00,60.00,Thursday
8,17.66050097641831
2,2, 5, 4, 0,20, 0.00,60.00,Thursday
95,29.99556741935662
135,31.00072580733898
175,31.20538779449306
215,28.483316164749075
255,28.67383909016574
295,29.10874998850593
2,2, 5, 4, 0,21, 0.00,10.00,Thursday
8,17.4410719211935
2,2, 5, 4, 0,21,10.00,20.00,Thursday
8,17.368294811205016
2,2, 5, 4, 0,21,20.00,30.00,Thursday
8,17.22263349128954
2,2, 5, 4, 0,21,30.00,40.00,Thursday
8,17.223436638622368
2,2, 5, 4, 0,21,40.00,50.00,Thursday
8,17.15034183460849
2,2, 5, 4, 0,21,50.00,60.00,Thursday
8,17.29035116040437
2,2, 5, 4, 0,21, 0.00,60.00,Thursday
95,29.93540420333024
135,30.88888823795222
175,30.9368801056786
215,28.63166041206284
255,28.811528894056399
295,29.12606554003472
2,2, 5, 4, 0,22, 0.00,10.00,Thursday
8,16.781062885381134
2,2, 5, 4, 0,22,10.00,20.00,Thursday
8,16.99414335031271
2,2, 5, 4, 0,22,20.00,30.00,Thursday
8,16.830673437877765
2,2, 5, 4, 0,22,30.00,40.00,Thursday
8,16.92114220541519
2,2, 5, 4, 0,22,40.00,50.00,Thursday
8,16.496429093634366
2,2, 5, 4, 0,22,50.00,60.00,Thursday
8,16.637030115747828
2,2, 5, 4, 0,22, 0.00,60.00,Thursday
95,29.82282258707717
135,30.67490227010961
175,30.63932093773364
215,28.667327790822936
255,28.798302509593854
295,29.047389061450514
2,2, 5, 4, 0,23, 0.00,10.00,Thursday
8,16.700451292377584
2,2, 5, 4, 0,23,10.00,20.00,Thursday
8,16.759403426097838
2,2, 5, 4, 0,23,20.00,30.00,Thursday
8,17.14125292925861
2,2, 5, 4, 0,23,30.00,40.00,Thursday
8,16.83522149787004
2,2, 5, 4, 0,23,40.00,50.00,Thursday
8,16.486251796648906
2,2, 5, 4, 0,23,50.00,60.00,Thursday
8,16.11001533083662
2,2, 5, 4, 0,23, 0.00,60.00,Thursday
95,29.692886747142777
135,30.409472760985215
175,30.340292963936734
215,28.601559547663688
255,28.68130860721638
295,28.898540108047788
2,2, 5, 4, 0,24, 0.00,10.00,Thursday
8,16.053155835485368
2,2, 5, 4, 0,24,10.00,20.00,Thursday
8,15.98004593077011
2,2, 5, 4, 0,24,20.00,30.00,Thursday
8,15.565020868493216
2,2, 5, 4, 0,24,30.00,40.00,Thursday
8,16.11251092042783
2,2, 5, 4, 0,24,40.00,50.00,Thursday
8,15.667218769440659
2,2, 5, 4, 0,24,50.00,60.00,Thursday
8,15.866711986239397
2,2, 5, 4, 0,24, 0.00,60.00,Thursday
95,29.57166145725091
135,30.12704709409393
175,30.059285366731115
215,28.473506766589336
255,28.53276289716274
295,28.710661674909816
3,2, 5, 4, 0,Thursday
96,34.258911743815058,31.501927240381684,19,50,37.33943646264981, 8,20
136,34.24352016059902,29.75393696818715,19,60,38.59358397641346, 8,30
176,33.35134766460876,28.863919366930309,18,50,38.6637858206759, 7,60
216,38.120349436111577,34.09733546050772,22,20,42.09231481559332,10,40
256,38.46079089813789,33.7809324370792,21,50,43.079382353997889,10,40
296,37.494128057125269,33.16920263603513,20,60,42.45868556630653,10,20
2,3, 5, 5, 0, 1, 0.00,10.00,Friday
8,15.642718013028631
2,3, 5, 5, 0, 1,10.00,20.00,Friday
8,15.393623802559059
2,3, 5, 5, 0, 1,20.00,30.00,Friday
8,15.393623802559059
2,3, 5, 5, 0, 1,30.00,40.00,Friday
8,15.667744693980089
2,3, 5, 5, 0, 1,40.00,50.00,Friday
8,15.173384213633425
2,3, 5, 5, 0, 1,50.00,60.00,Friday
8,15.246245372224334
2,3, 5, 5, 0, 1, 0.00,60.00,Friday
95,29.424205522518123
135,29.831914315395236
175,29.72875986972632
215,28.327905104527689
255,28.359815084750477
295,28.484218708352477
2,3, 5, 5, 0, 2, 0.00,10.00,Friday
8,15.29716115634222
2,3, 5, 5, 0, 2,10.00,20.00,Friday
8,15.194290642877819
2,3, 5, 5, 0, 2,20.00,30.00,Friday
8,15.273236354022539
2,3, 5, 5, 0, 2,30.00,40.00,Friday
8,15.03008483623594
2,3, 5, 5, 0, 2,40.00,50.00,Friday
8,15.076385410391456
2,3, 5, 5, 0, 2,50.00,60.00,Friday
8,14.666114655258705
2,3, 5, 5, 0, 2, 0.00,60.00,Friday
95,29.226385370404093
135,29.504341739979837
175,29.2980944203005
215,28.153376329184427
255,28.154542195761719
295,28.207864646213058
2,3, 5, 5, 0, 3, 0.00,10.00,Friday
8,14.84214024838254
2,3, 5, 5, 0, 3,10.00,20.00,Friday
8,14.665945017831023
2,3, 5, 5, 0, 3,20.00,30.00,Friday
8,14.858213728505963