Program Version,EnergyPlus, Version 9.5.0-de239b2e5f, YMD=2021.12.08 22:54
1,5,Environment Title[],Latitude[deg],Longitude[deg],Time Zone[],Elevation[m]
2,8,Day of Simulation[],Month[],Day of Month[],DST Indicator[1=yes 0=no],Hour[],StartMinute[],EndMinute[],DayType
3,5,Cumulative Day of Simulation[],Month[],Day of Month[],DST Indicator[1=yes 0=no],DayType  ! When Daily Report Variables Requested
4,2,Cumulative Days of Simulation[],Month[]  ! When Monthly Report Variables Requested
5,1,Cumulative Days of Simulation[] ! When Run Period Report Variables Requested
6,1,Calendar Year of Simulation[] ! When Annual Report Variables Requested
86,1,THERMAL ZONE: CUBI_1,Zone Mean Air Temperature [C] !TimeStep
87,1,THERMAL ZONE: CUBI_2,Zone Mean Air Temperature [C] !TimeStep
88,1,THERMAL ZONE: CUBI_JORGE,Zone Mean Air Temperature [C] !TimeStep
89,1,THERMAL ZONE: TECHO_1,Zone Mean Air Temperature [C] !TimeStep
90,1,THERMAL ZONE: TECHO_2,Zone Mean Air Temperature [C] !TimeStep
91,1,THERMAL ZONE: TECHO_JORGE,Zone Mean Air Temperature [C] !TimeStep
End of Data Dictionary
1,RUN PERIOD 1,  18.85, -99.14,  -6.00,1280.00
2,1, 5, 3, 0, 1, 0.00,10.00,Friday
86,28.353188017469355
87,28.333079625033159
88,26.876555986823285
89,27.24703533096855
90,27.183319431573897
91,25.575224776086349
2,1, 5, 3, 0, 1,10.00,20.00,Friday
86,28.31092956407534
87,28.274608976240108
88,27.15828654395348
89,27.220905468021639
90,27.151996372415576
91,26.020682335058145
2,1, 5, 3, 0, 1,20.00,30.00,Friday
86,28.280367829183566
87,28.230793363539257
88,27.354260688457367
89,27.19139935689148
90,27.11672195592063
91,25.59808149319155
2,1, 5, 3, 0, 1,30.00,40.00,Friday
86,28.221561472109955
87,28.151748035667226
88,27.143576529829308
89,27.15393774700122
90,27.072533278230979
91,25.703874557806313
2,1, 5, 3, 0, 1,40.00,50.00,Friday
86,28.190534563330606
87,28.108339888466565
88,27.131187568303284
89,27.119032266124149
90,27.030312409146114
91,25.41510323568722
2,1, 5, 3, 0, 1,50.00,60.00,Friday
86,28.145585795716529
87,28.04342879350774
88,26.943366739332907
89,27.078797590055879
90,26.982584837500015
91,25.688350383339203
2,1, 5, 3, 0, 2, 0.00,10.00,Friday
86,28.109497720469425
87,27.99468311779008
88,26.558687068238105
89,27.037778600054695
90,26.935204136638
91,25.609456525935266
2,1, 5, 3, 0, 2,10.00,20.00,Friday
86,28.092142926456039
87,27.961739479683805
88,27.070218053027195
89,26.995006510206527
90,26.885848144952527
91,24.92675319268199
2,1, 5, 3, 0, 2,20.00,30.00,Friday
86,28.053009768220404
87,27.90228043566362
88,27.283677752873463
89,26.94506982615864
90,26.829789430696175
91,24.99171375545164
2,1, 5, 3, 0, 2,30.00,40.00,Friday
86,28.014241088331159
87,27.84302856055016
88,27.267753220850158
89,26.89201537758488
90,26.77132460139258
91,24.973241400747765
2,1, 5, 3, 0, 2,40.00,50.00,Friday
86,27.978197848973559
87,27.791132562540175
88,26.986990485466874
89,26.842954997760445
90,26.71635189972709
91,25.26755309098501
2,1, 5, 3, 0, 2,50.00,60.00,Friday
86,27.955877390537304
87,27.765330838355746
88,26.923012386688727
89,26.800974840544478
90,26.668585674040295
91,24.934588196505719
2,1, 5, 3, 0, 3, 0.00,10.00,Friday
86,27.91403040983885
87,27.71550990611822
88,26.880702073918916
89,26.750548428163986
90,26.611783571367057
91,24.779250916398494
2,1, 5, 3, 0, 3,10.00,20.00,Friday
86,27.86242645499139
87,27.650806388860553
88,26.801225016042478
89,26.69597116660036
90,26.550353357285848
91,24.702187320356754
2,1, 5, 3, 0, 3,20.00,30.00,Friday
86,27.834196899566416
87,27.61597857895446
88,26.457528127511627
89,26.653207951879389
90,26.501898894310309
91,25.013490309131109
2,1, 5, 3, 0, 3,30.00,40.00,Friday
86,27.781811144395978
87,27.54635763486537
88,26.523884145417904
89,26.598791102226767
90,26.440757959689785
91,24.546367797962068
2,1, 5, 3, 0, 3,40.00,50.00,Friday
86,27.749649908843528
87,27.506955237173299
88,26.077307028496869
89,26.551880655128728
90,26.387767899318779
91,25.201019062239057
2,1, 5, 3, 0, 3,50.00,60.00,Friday
86,27.716614969066577
87,27.46393627886997
88,26.184016303054805
89,26.50303188292149
90,26.332799284174059
91,24.481023354333986
2,1, 5, 3, 0, 4, 0.00,10.00,Friday
86,27.6742811087246
87,27.41074740656932
88,25.793037964554239
89,26.451891052834968
90,26.275466427501045
91,25.161127205802765
2,1, 5, 3, 0, 4,10.00,20.00,Friday
86,27.61518398417255
87,27.332937529113765
88,25.525390069628224
89,26.39610246269002
90,26.21316071830378
91,25.254738526669603
2,1, 5, 3, 0, 4,20.00,30.00,Friday
86,27.568552521969744
87,27.271660647581258
88,25.5233715230044
89,26.343122198697619
90,26.154114107010615
91,24.75760062646389
2,1, 5, 3, 0, 4,30.00,40.00,Friday
86,27.54000332902921
87,27.236980484635397
88,25.31867672112699
89,26.295344999439114
90,26.10093582481791
91,25.29855760930451
2,1, 5, 3, 0, 4,40.00,50.00,Friday
86,27.490981102802853
87,27.175779082681758
88,25.253950624591515
89,26.23838241277572
90,26.03791930310659
91,24.46361159939674
2,1, 5, 3, 0, 4,50.00,60.00,Friday
86,27.432595523047096
87,27.101261939101485
88,25.020567952780405
89,26.17965344156718
90,25.973143099377734
91,24.61018378828496
2,1, 5, 3, 0, 5, 0.00,10.00,Friday
86,27.399267076622907
87,27.058833769317464
88,24.950316071806748
89,26.125504386711289
90,25.91352862943525
91,24.93026903798599
2,1, 5, 3, 0, 5,10.00,20.00,Friday
86,27.34215702824687
87,26.987728092053709
88,24.707393682208548
89,26.06653259979676
90,25.848914582328758
91,24.716059706759347
2,1, 5, 3, 0, 5,20.00,30.00,Friday
86,27.313594559230404
87,26.947149126024585
88,24.984180760888856
89,26.00550142786072
90,25.78211665472564
91,24.059371925039764
2,1, 5, 3, 0, 5,30.00,40.00,Friday
86,27.27689171409685
87,26.9002850967822
88,24.84353484244388
89,25.95254840746558
90,25.72432258599307
91,24.452171653430577
2,1, 5, 3, 0, 5,40.00,50.00,Friday
86,27.222290736456786
87,26.82478743218478
88,24.936397676650374
89,25.882021932593756
90,25.647601091210519
91,24.059749585244675
2,1, 5, 3, 0, 5,50.00,60.00,Friday
86,27.197129573977
87,26.790513268863287
88,25.162795112992009
89,25.82531877446842
90,25.58576823429833
91,23.51077945189688
2,1, 5, 3, 0, 6, 0.00,10.00,Friday
86,27.15791679400006
87,26.737778930419404
88,25.25654613811821
89,25.76299123145701
90,25.517930258907108
91,23.723817295375839
2,1, 5, 3, 0, 6,10.00,20.00,Friday
86,27.095846725383539
87,26.66518247875857
88,24.86534960686045
89,25.70258075764893
90,25.45207921608454
91,23.384964057664278
2,1, 5, 3, 0, 6,20.00,30.00,Friday
86,27.04102881678646
87,26.59883038038919
88,24.53314792237525
89,25.644553663289519
90,25.38877710816346
91,23.95071026602763
2,1, 5, 3, 0, 6,30.00,40.00,Friday
86,26.97557201230102
87,26.523518431960278
88,24.144750389631676
89,25.58641227304335
90,25.32527171796039
91,23.77803836146469
2,1, 5, 3, 0, 6,40.00,50.00,Friday
86,26.926005091088155
87,26.46104085878722
88,24.220183338717488
89,25.52403940530388
90,25.25730595227099
91,23.206014112541586
2,1, 5, 3, 0, 6,50.00,60.00,Friday
86,26.863493844293779
87,26.38182433986714
88,24.288778052138644
89,25.458764803857937
90,25.186296890529765
91,22.907559118090555
2,1, 5, 3, 0, 7, 0.00,10.00,Friday
86,26.82795472490861
87,26.33691992590957
88,24.1865182136182
89,25.396585322213747
90,25.118755603712537
91,23.293564037422816
2,1, 5, 3, 0, 7,10.00,20.00,Friday
86,26.786612166525776
87,26.281574890318919
88,24.15947706382431
89,25.331004216740934
90,25.047666712250196
91,23.388785123029395
2,1, 5, 3, 0, 7,20.00,30.00,Friday
86,26.75696003185852
87,26.238291591798096
88,24.721388640572209
89,25.262596316244623
90,24.97353463870678
91,22.395389863219763
2,1, 5, 3, 0, 7,30.00,40.00,Friday
86,26.704681844219278
87,26.171450166896574
88,24.840252518822387
89,25.198349129496639
90,24.903932777266229
91,22.370616342050103
2,1, 5, 3, 0, 7,40.00,50.00,Friday
86,26.653520777109127
87,26.105993926120218
88,24.751980468552899
89,25.13009518645744
90,24.82993911619195
91,22.548342413937225
2,1, 5, 3, 0, 7,50.00,60.00,Friday
86,26.640504004369175
87,26.086829244911955
88,24.5053981565647
89,25.07228369144365
90,24.76708894132559
91,22.858180664755147
2,1, 5, 3, 0, 8, 0.00,10.00,Friday
86,26.603487378735779
87,26.03636428708173
88,24.03573839150112
89,25.00603732172248
90,24.69509458377754
91,23.8498015312421
2,1, 5, 3, 0, 8,10.00,20.00,Friday
86,26.5778139843721
87,26.000745072774444
88,23.849092497482017
89,24.945687571080446
90,24.629389351226807
91,23.761979023987366
2,1, 5, 3, 0, 8,20.00,30.00,Friday
86,26.58310520337169
87,25.994795580820929
88,24.238978214671648
89,24.885977535777117
90,24.564262478071869
91,23.38036427338016
2,1, 5, 3, 0, 8,30.00,40.00,Friday
86,26.610171149158569
87,26.01202410148883
88,24.85631804572757
89,24.8322089034728
90,24.505129718522438
91,23.106361650565565
2,1, 5, 3, 0, 8,40.00,50.00,Friday
86,26.646236671656284
87,26.036888080280769
88,25.15419930536057
89,24.78192696801566
90,24.44904247461198
91,23.542805384006429
2,1, 5, 3, 0, 8,50.00,60.00,Friday
86,26.686211032289337
87,26.062800862347438
88,25.38729977814767
89,24.728286161712036
90,24.388162922437489
91,23.783288753372966
2,1, 5, 3, 0, 9, 0.00,10.00,Friday
86,26.72646548266074
87,26.09466168623776
88,25.623887388553436
89,24.68582186907829
90,24.33826193572792
91,24.20103836889364
2,1, 5, 3, 0, 9,10.00,20.00,Friday
86,26.7632234288832
87,26.119866024326155
88,25.85597456138062
89,24.64883905196399
90,24.29344139030969
91,24.184395641454409
2,1, 5, 3, 0, 9,20.00,30.00,Friday
86,26.786889852276489
87,26.133360556440587
88,25.95024778500798
89,24.616300841369129
90,24.25264709125681
91,24.167078953283434
2,1, 5, 3, 0, 9,30.00,40.00,Friday
86,26.80949318237692
87,26.14828016942509
88,26.06109885703057
89,24.59437882345869
90,24.223602469084168
91,24.212483426548066
2,1, 5, 3, 0, 9,40.00,50.00,Friday
86,26.842177575512165
87,26.176091952189855
88,26.190649221377297
89,24.579792184544638
90,24.202974302306399
91,24.355818679513037
2,1, 5, 3, 0, 9,50.00,60.00,Friday
86,26.87935393859049
87,26.211037793688474
88,26.274720429070137
89,24.57034294040249
90,24.188431578246296
91,24.246387071390406
2,1, 5, 3, 0,10, 0.00,10.00,Friday
86,26.908344710853549
87,26.238150223174338
88,26.547661322139616
89,24.567207046389144
90,24.181683481241778
91,24.665312251715933
2,1, 5, 3, 0,10,10.00,20.00,Friday
86,26.951917202881949
87,26.281438499031144
88,26.831370182199739
89,24.567690380014026
90,24.178845706991369
91,24.827953144603787
2,1, 5, 3, 0,10,20.00,30.00,Friday
86,26.99815911060078
87,26.33034694720289
88,27.059055637248517
89,24.57319867605583
90,24.181601108562178
91,24.960602575936794
2,1, 5, 3, 0,10,30.00,40.00,Friday
86,27.034818672684268
87,26.377052745071997
88,27.049319359169066
89,24.584168441000043
90,24.190873332680178
91,24.976040801655626
2,1, 5, 3, 0,10,40.00,50.00,Friday
86,27.065072721828956
87,26.422232664095846
88,26.974788359000056
89,24.599565482123095
90,24.205170840881313
91,25.235123847951799
2,1, 5, 3, 0,10,50.00,60.00,Friday
86,27.076148944172727
87,26.442596278629499
88,27.014430481316418
89,24.61792223314241
90,24.22304626769622
91,24.80568391551627
2,1, 5, 3, 0,11, 0.00,10.00,Friday
86,27.10880854042509
87,26.48716761875748
88,27.17770725626518
89,24.64182071894799
90,24.246873125275987
91,24.887922976574786
2,1, 5, 3, 0,11,10.00,20.00,Friday
86,27.165389470716965
87,26.560544917830833
88,27.394646071204023
89,24.67072014168039
90,24.276182084801016
91,24.972763358890079
2,1, 5, 3, 0,11,20.00,30.00,Friday
86,27.225487525195186
87,26.63771437493183
88,27.61088834916276
89,24.70073262600903
90,24.30698044447692
91,25.000865069260283
2,1, 5, 3, 0,11,30.00,40.00,Friday
86,27.256327674089598
87,26.67485141167583
88,27.780391519636564
89,24.73103693865818
90,24.33827041644183
91,25.75133200309824
2,1, 5, 3, 0,11,40.00,50.00,Friday
86,27.287825056120956
87,26.716498957754113
88,27.852977250177419
89,24.76267597763715
90,24.370988620514575
91,25.264596823831988
2,1, 5, 3, 0,11,50.00,60.00,Friday
86,27.343189014488574
87,26.788877906063218
88,28.009653526813236
89,24.80321270575185
90,24.41278525393604
91,25.25446764661358
2,1, 5, 3, 0,12, 0.00,10.00,Friday
86,27.402280079057414
87,26.86121847570802
88,28.337576338071075
89,24.843946859763549
90,24.454680514972517
91,26.203814135528906
2,1, 5, 3, 0,12,10.00,20.00,Friday
86,27.456531433641023
87,26.930034575634907
88,28.48576127076965
89,24.88647024142724
90,24.498327051345254
91,25.99189959498369
2,1, 5, 3, 0,12,20.00,30.00,Friday
86,27.51475136781939
87,26.997741911600359
88,28.699517015021354
89,24.93397532951299
90,24.547008058993474
91,27.030507870567054
2,1, 5, 3, 0,12,30.00,40.00,Friday
86,27.585093607903866
87,27.084856420937358
88,28.978626573980486
89,24.983333327305478
90,24.597411838676768
91,27.051384115564266
2,1, 5, 3, 0,12,40.00,50.00,Friday
86,27.6686421226989
87,27.184794832654349
88,29.26266396983723
89,25.03896217128578
90,24.653583202997923
91,27.34659406357681
2,1, 5, 3, 0,12,50.00,60.00,Friday
86,27.756202513239754
87,27.28708130245503
88,29.558045768640473
89,25.096159037841529
90,24.710608143622915
91,27.324283657548038
2,1, 5, 3, 0,13, 0.00,10.00,Friday
86,27.82194539549633
87,27.360644233908777
88,29.80036564033631
89,25.15307526818963
90,24.77112998490117
91,28.329605559366457
2,1, 5, 3, 0,13,10.00,20.00,Friday
86,27.862334855445629
87,27.41245121936751
88,29.953727767923924
89,25.213170343198106
90,24.835559067729457
91,27.35290507909362
2,1, 5, 3, 0,13,20.00,30.00,Friday
86,27.891981504611658
87,27.44774947669257
88,29.93572057892918
89,25.274788752139437
90,24.90489018123138
91,26.870587996747063
2,1, 5, 3, 0,13,30.00,40.00,Friday
86,27.934096179900715
87,27.49961795021648
88,29.986710819579885
89,25.34661696203932
90,24.987243675129116
91,28.348589866785333
2,1, 5, 3, 0,13,40.00,50.00,Friday
86,28.000912796706716
87,27.58490351850362
88,30.07788280405336
89,25.42740018728127
90,25.07663748023441
91,28.09506360850427
2,1, 5, 3, 0,13,50.00,60.00,Friday
86,28.021335179850717
87,27.619469652651075
88,30.114801347180405
89,25.50514260380536
90,25.16210527551199
91,28.70094503774738
2,1, 5, 3, 0,14, 0.00,10.00,Friday
86,28.066747510162736
87,27.684620688513257
88,30.324121607820634
89,25.585596279940224
90,25.251310474588274
91,28.857766125853204
2,1, 5, 3, 0,14,10.00,20.00,Friday
86,28.171112893087505
87,27.813566084933336
88,30.4825899772692
89,25.674271448716629
90,25.350036262133547
91,29.025892479054435
2,1, 5, 3, 0,14,20.00,30.00,Friday
86,28.239947986903006
87,27.89987122290437
88,30.72997288817836
89,25.751569675910898
90,25.43743902322652
91,28.25756865910076
2,1, 5, 3, 0,14,30.00,40.00,Friday
86,28.313276922736696
87,27.997179663697556
88,30.767350928158018
89,25.834386042432688
90,25.532040645942457
91,28.54805028989433
2,1, 5, 3, 0,14,40.00,50.00,Friday
86,28.43964794084471
87,28.152566399490703
88,31.06664584216616
89,25.92655784184073
90,25.639090901592028
91,28.51442801864619
2,1, 5, 3, 0,14,50.00,60.00,Friday
86,28.530237499964284
87,28.26233694713347
88,31.16698851175037
89,26.00945536689415
90,25.73841924139388
91,30.21233159600082
2,1, 5, 3, 0,15, 0.00,10.00,Friday
86,28.492365004524467
87,28.247021811743278
88,31.03356175187195
89,26.094365248739274
90,25.842342831013477
91,29.122841501968617
2,1, 5, 3, 0,15,10.00,20.00,Friday
86,28.53395786134005
87,28.31911812670242
88,31.13311363191593
89,26.180953283157498
90,25.95008219213346
91,29.681293164921845
2,1, 5, 3, 0,15,20.00,30.00,Friday
86,28.638324011932505
87,28.462680198534828
88,31.41073747344942
89,26.281510739391359
90,26.08075141963892
91,28.84000326768558
2,1, 5, 3, 0,15,30.00,40.00,Friday
86,28.777022886970586
87,28.641005601135228
88,32.13140629137986
89,26.377360901609756
90,26.203048574267404
91,31.839196855786395
2,1, 5, 3, 0,15,40.00,50.00,Friday
86,28.826580709279626
87,28.724054402421069
88,31.978952912113518
89,26.4712950380966
90,26.31924722334355
91,30.671788927184829
2,1, 5, 3, 0,15,50.00,60.00,Friday
86,28.935545994911164
87,28.898788096528216
88,31.872082282496867
89,26.593041726102024
90,26.46315075131779
91,30.26378626283704
2,1, 5, 3, 0,16, 0.00,10.00,Friday
86,29.023372419007175
87,29.02108128348852
88,32.268976227236269
89,26.678030210815039
90,26.56660428084856
91,30.91680866930819
2,1, 5, 3, 0,16,10.00,20.00,Friday
86,29.14946536288896
87,29.217980359507746
88,32.556265393224
89,26.808351385027465
90,26.722690042257768
91,31.504990620567825
2,1, 5, 3, 0,16,20.00,30.00,Friday
86,29.14692286556777
87,29.25570318316192
88,32.16580886762989
89,26.89126038536372
90,26.829987763431754
91,30.22062519488344
2,1, 5, 3, 0,16,30.00,40.00,Friday
86,29.176337896449814
87,29.331500123006458
88,32.23949604526001
89,26.980186863556165
90,26.927486143983864
91,30.764088962339149
2,1, 5, 3, 0,16,40.00,50.00,Friday
86,29.230483650234853
87,29.471211997315807
88,32.297188540164828
89,27.12347104995843
90,27.101467861156807
91,31.067404621189789
2,1, 5, 3, 0,16,50.00,60.00,Friday
86,29.227072769014375
87,29.535520092835296
88,32.1859700315052
89,27.236003929710493
90,27.239541928423767
91,30.895597015756115
2,1, 5, 3, 0,17, 0.00,10.00,Friday
86,29.22100600460304
87,29.564587451371666
88,32.291400880788938
89,27.323807727654385
90,27.346818500030854
91,31.883526063145817
2,1, 5, 3, 0,17,10.00,20.00,Friday
86,29.177804106680033
87,29.573050403828107
88,31.19513835586582
89,27.416865026252613
90,27.45884409709205
91,30.603185808219917
2,1, 5, 3, 0,17,20.00,30.00,Friday
86,29.112672316326824
87,29.589944180728638
88,30.150883531252498
89,27.52813010862382
90,27.59037045119922
91,29.33584308388033
2,1, 5, 3, 0,17,30.00,40.00,Friday
86,29.108427795355305
87,29.615343318559565
88,29.825447797020354
89,27.601828297631557
90,27.675543204297367
91,28.982043922800139
2,1, 5, 3, 0,17,40.00,50.00,Friday
86,29.082559992925977
87,29.655085096813754
88,29.6869740756366
89,27.706926433310799
90,27.79491528915691
91,28.524771239790448
2,1, 5, 3, 0,17,50.00,60.00,Friday
86,29.106770258398364
87,29.7191712410227
88,30.119366366010238
89,27.77361955717994
90,27.868585458331105
91,29.103977481279835
2,1, 5, 3, 0,18, 0.00,10.00,Friday
86,29.11107808913762
87,29.73719359093019
88,29.39560003882874
89,27.824862512746259
90,27.924414741814077
91,28.104008090161949
2,1, 5, 3, 0,18,10.00,20.00,Friday
86,29.09696460449279
87,29.739873214501164
88,29.28902215154078
89,27.86872626447187
90,27.971207401049055
91,27.53539275488798
2,1, 5, 3, 0,18,20.00,30.00,Friday
86,29.089404381691684
87,29.7500979276338
88,29.20278680452679
89,27.910890205564834
90,28.015369182244507
91,27.54412979053336
2,1, 5, 3, 0,18,30.00,40.00,Friday
86,29.112503619350535
87,29.774341339658848
88,29.429648240307693
89,27.934728983128353
90,28.039508360871975
91,27.99707296339073
2,1, 5, 3, 0,18,40.00,50.00,Friday
86,29.14990088433803
87,29.811734620243983
88,29.692492545215328
89,27.958386582728865
90,28.062872015740994
91,28.298255387309788
2,1, 5, 3, 0,18,50.00,60.00,Friday
86,29.17970333970496
87,29.83326429163272
88,29.856244920963286
89,27.96847672090815
90,28.071767010741316
91,28.473853352096627
2,1, 5, 3, 0,19, 0.00,10.00,Friday
86,29.188962493352336
87,29.82922457091054
88,29.66453100647291
89,27.971317308258454
90,28.072819065964408
91,28.331061763461418
2,1, 5, 3, 0,19,10.00,20.00,Friday
86,29.191272128814228
87,29.817757454342109
88,29.664037638104067
89,27.972988297687875
90,28.072548994244664
91,28.51455998062535
2,1, 5, 3, 0,19,20.00,30.00,Friday
86,29.182878785277663
87,29.794953299470988
88,29.87460264323667
89,27.974641609094918
90,28.072247657435008
91,28.59219861228529
2,1, 5, 3, 0,19,30.00,40.00,Friday
86,29.165980766461034
87,29.763295108882486
88,29.79691950351342
89,27.975997154450146
90,28.071629958921894
91,28.38094336041351
2,1, 5, 3, 0,19,40.00,50.00,Friday
86,29.145332902413217
87,29.729074143758067
88,29.83000207844851
89,27.97714336760482
90,28.070742392832995
91,28.386649442586479
2,1, 5, 3, 0,19,50.00,60.00,Friday
86,29.122718732557748
87,29.691952367007614
88,29.660160410449863
89,27.978077607481809
90,28.06954332080066
91,28.295274192626989
2,1, 5, 3, 0,20, 0.00,10.00,Friday
86,29.10260039668694
87,29.657674856819996
88,29.576840681310104
89,27.978434050221066
90,28.067645931977255
91,28.217873616367183
2,1, 5, 3, 0,20,10.00,20.00,Friday
86,29.081180615562947
87,29.623307710830056
88,29.635063894522195
89,27.9777645828001
90,28.06458339441755
91,28.236764260431135
2,1, 5, 3, 0,20,20.00,30.00,Friday
86,29.05164375842437
87,29.581196336515676
88,29.484499281538864
89,27.975796032284984
90,28.060086589632925
91,28.030490283885667
2,1, 5, 3, 0,20,30.00,40.00,Friday
86,29.024678450856294
87,29.5413879004081
88,29.38595322305206
89,27.97235584803014
90,28.05406577394039
91,28.064408047309685
2,1, 5, 3, 0,20,40.00,50.00,Friday
86,29.00880169005383
87,29.514280775356775
88,29.067602946221
89,27.967974505904978
90,28.04804771605218
91,27.606145348780286
2,1, 5, 3, 0,20,50.00,60.00,Friday
86,28.969118462077874
87,29.4521542754223
88,28.6225262215632
89,27.96022273590831
90,28.037481031669338
91,27.289593318964625
2,1, 5, 3, 0,21, 0.00,10.00,Friday
86,28.93177728261355
87,29.3943706189528
88,28.226006871050978
89,27.95155855389494
90,28.02074302958831
91,26.974779558336768
2,1, 5, 3, 0,21,10.00,20.00,Friday
86,28.916742513153744
87,29.35843644378558
88,28.372948856948626
89,27.940993626722894
90,27.998783387905808
91,27.31574320591307
2,1, 5, 3, 0,21,20.00,30.00,Friday
86,28.91063176020437
87,29.338201510220047
88,28.968442690347417
89,27.92345626408303
90,27.97654328721633
91,27.423915037062995
2,1, 5, 3, 0,21,30.00,40.00,Friday
86,28.901061893691187
87,29.311557358543717
88,29.136279125857685
89,27.903318503070687
90,27.94991183685701
91,27.454282649937615
2,1, 5, 3, 0,21,40.00,50.00,Friday
86,28.890627543328447
87,29.278855001507396
88,29.07813158673535
89,27.87700156548224
90,27.91569797298557
91,27.95432077558711
2,1, 5, 3, 0,21,50.00,60.00,Friday
86,28.86423403671947
87,29.219743560546996
88,28.885865350440434
89,27.84566166403508
90,27.87554041415039
91,27.821016087581545
2,1, 5, 3, 0,22, 0.00,10.00,Friday
86,28.85148202093877
87,29.18636685493228
88,28.676531272497436
89,27.818290217684486
90,27.839703763815327
91,27.39888851330094
2,1, 5, 3, 0,22,10.00,20.00,Friday
86,28.81864410437916
87,29.11237301073882
88,28.306341551511
89,27.784428571765348
90,27.800832733025957
91,27.024150312192007
2,1, 5, 3, 0,22,20.00,30.00,Friday
86,28.77289942885828
87,29.03942977790608
88,27.919370668283784
89,27.760370635062729
90,27.772610404182978
91,26.647453804430329
2,1, 5, 3, 0,22,30.00,40.00,Friday
86,28.73816581783871
87,28.982386471033125
88,28.083123606086838
89,27.73271684938466
90,27.739040469988127
91,27.423233788271035
2,1, 5, 3, 0,22,40.00,50.00,Friday
86,28.72081128090754
87,28.94393767133835
88,28.24096308714157
89,27.70445414935234
90,27.70578317265498
91,27.542768757801093
2,1, 5, 3, 0,22,50.00,60.00,Friday
86,28.71801303252365
87,28.92696605312213
88,28.624316209294358
89,27.676891882095153
90,27.673871754105496
91,26.798416520664806
2,1, 5, 3, 0,23, 0.00,10.00,Friday
86,28.693888868470436
87,28.88138863966
88,28.535979654320017
89,27.64631269558451
90,27.63887180072802
91,27.07853025206532
2,1, 5, 3, 0,23,10.00,20.00,Friday
86,28.686536804865847
87,28.8580037587534
88,28.36991606967277
89,27.616692449441737
90,27.604765895026064
91,27.608763697076129
2,1, 5, 3, 0,23,20.00,30.00,Friday
86,28.666488371485089
87,28.807813097725619
88,28.40583162792008
89,27.58090004028401
90,27.563885063410344
91,27.26464837012182
2,1, 5, 3, 0,23,30.00,40.00,Friday
86,28.627148644779234
87,28.746994377338248
88,27.9476292707715
89,27.551133614215027
90,27.5292326197423
91,26.557389765073123
2,1, 5, 3, 0,23,40.00,50.00,Friday
86,28.59119258174745
87,28.69211625699539
88,27.76262642744967
89,27.51994464199249
90,27.493051117369068
91,26.835518793262588
2,1, 5, 3, 0,23,50.00,60.00,Friday
86,28.591006538053109
87,28.680564358152766
88,27.951995382836409
89,27.490907299387446
90,27.45916396716072
91,27.29408248290561
2,1, 5, 3, 0,24, 0.00,10.00,Friday
86,28.57663356367004
87,28.64062048499936
88,28.137186101502217
89,27.454479731485045
90,27.41783406981231
91,27.120504451594046
2,1, 5, 3, 0,24,10.00,20.00,Friday
86,28.557845488887968
87,28.598953469111664
88,28.033260239890024
89,27.42200330386855
90,27.380139611306548
91,27.07056168596302
2,1, 5, 3, 0,24,20.00,30.00,Friday
86,28.545999723346065
87,28.578200553729834
88,27.73392892943999
89,27.394751568271908
90,27.34761498033977
91,26.54066082162663
2,1, 5, 3, 0,24,30.00,40.00,Friday
86,28.528967611101895
87,28.54400656431992
88,27.47361160758673
89,27.362245294781184
90,27.30959794098971
91,26.36708777339391
2,1, 5, 3, 0,24,40.00,50.00,Friday
86,28.523954000920776
87,28.524815948891026
88,28.03754301859651
89,27.33239548736495
90,27.274212531664465
91,26.78463567918335
2,1, 5, 3, 0,24,50.00,60.00,Friday
86,28.50873412304793
87,28.491083664773993
88,28.060314928173619
89,27.300944232148877
90,27.237256068938494
91,26.845800774572895
2,2, 5, 4, 0, 1, 0.00,10.00,Saturday
86,28.485557319594329
87,28.45731995763856
88,27.64494290186022
89,27.27301848063359
90,27.20371717750975
91,26.442436153660375
2,2, 5, 4, 0, 1,10.00,20.00,Saturday
86,28.435142142333488
87,28.38423700674015
88,27.214466540307975
89,27.240749453518835
90,27.16570460124975
91,26.10639726837873
2,2, 5, 4, 0, 1,20.00,30.00,Saturday
86,28.390542959977418
87,28.320400856057704
88,26.96203646772896
89,27.212670847565737
90,27.131863387046186
91,25.909496723024227
2,2, 5, 4, 0, 1,30.00,40.00,Saturday
86,28.353846652073864
87,28.269085802924857
88,26.975104661161365
89,27.184957354307735
90,27.098086120266126
91,25.939646450170537
2,2, 5, 4, 0, 1,40.00,50.00,Saturday
86,28.329335666678863
87,28.232217823967404
88,27.057753130681776
89,27.156628800142184
90,27.063532262510568
91,26.0605129796312
2,2, 5, 4, 0, 1,50.00,60.00,Saturday
86,28.310436376224759
87,28.20176054326573
88,27.11359249639153
89,27.12788544162705
90,27.02843759900727
91,26.179119387882609
2,2, 5, 4, 0, 2, 0.00,10.00,Saturday
86,28.302309813542644
87,28.18810762044243
88,27.29066183250889
89,27.101753431321368
90,26.99704528111588
91,26.746093310003134
2,2, 5, 4, 0, 2,10.00,20.00,Saturday
86,28.279187019283776
87,28.150222689116366
88,27.645008695413965
89,27.066766279323589
90,26.956870516698435
91,26.28080798393203
2,2, 5, 4, 0, 2,20.00,30.00,Saturday
86,28.256716949212966
87,28.114260894585518
88,27.82122599600389
89,27.03480907556724
90,26.919771102746539
91,26.24655488598163
2,2, 5, 4, 0, 2,30.00,40.00,Saturday
86,28.228989368125267
87,28.076497034969557
88,27.6440567967185
89,27.003166776226164
90,26.883110917707975
91,26.19880746287136
2,2, 5, 4, 0, 2,40.00,50.00,Saturday
86,28.201384954141337
87,28.040649991520728
88,27.46492469609664
89,26.971890091137575
90,26.847072462471055
91,26.24427710796829
2,2, 5, 4, 0, 2,50.00,60.00,Saturday
86,28.174852566556888
87,28.004366859087964
88,27.47659162859627
89,26.941032894716213
90,26.81108442949136
91,26.080237957233324
2,2, 5, 4, 0, 3, 0.00,10.00,Saturday
86,28.15016500028967
87,27.974658337749184
88,27.195428031277588
89,26.914488479263654
90,26.779705306719057
91,26.533466813474229
2,2, 5, 4, 0, 3,10.00,20.00,Saturday
86,28.093879567537138
87,27.902904883492718
88,26.871737216194064
89,26.880569096025917
90,26.739956694540277
91,26.395817295364514
2,2, 5, 4, 0, 3,20.00,30.00,Saturday
86,28.04086223443713
87,27.834993294667315
88,26.587353555434626
89,26.850739877812765
90,26.70479294827779
91,25.746495461261796
2,2, 5, 4, 0, 3,30.00,40.00,Saturday
86,27.99616299406109
87,27.777140155050593
88,26.491814481171074
89,26.819286077582615
90,26.667927765457678
91,25.964507803962634
2,2, 5, 4, 0, 3,40.00,50.00,Saturday
86,27.95864033702993
87,27.72807540526715
88,26.493027682451538
89,26.784669064380194
90,26.627695416302108
91,26.159700883358768
2,2, 5, 4, 0, 3,50.00,60.00,Saturday
86,27.925649207048069
87,27.690827542137137
88,26.30639787544034
89,26.75406199161324
90,26.592384739406346
91,25.800249236172925
2,2, 5, 4, 0, 4, 0.00,10.00,Saturday
86,27.851423364576215
87,27.603793753100925
88,25.96833981736014
89,26.714312230995874
90,26.54700341775112
91,25.978804722461406
2,2, 5, 4, 0, 4,10.00,20.00,Saturday
86,27.812930594947024
87,27.559724010843689
88,25.648216012525404
89,26.67904850536749
90,26.5068378515702
91,24.84798381749165
2,2, 5, 4, 0, 4,20.00,30.00,Saturday
86,27.757482719956128
87,27.493990116453835
88,25.498096739312645
89,26.637315297544668
90,26.459816852803227
91,24.98915907745314
2,2, 5, 4, 0, 4,30.00,40.00,Saturday
86,27.725764676637227
87,27.453007888128157
88,25.845418612425143
89,26.593756869048364
90,26.41107467605901
91,24.52905884341793
2,2, 5, 4, 0, 4,40.00,50.00,Saturday
86,27.658896940421493
87,27.369520912688907
88,25.50492649879037
89,26.54264642087299
90,26.354495092682066
91,24.851026912113704
2,2, 5, 4, 0, 4,50.00,60.00,Saturday
86,27.624872846368694
87,27.323835190557216
88,25.358215980702263
89,26.49361119779038
90,26.300285118598745
91,25.744067784705235
2,2, 5, 4, 0, 5, 0.00,10.00,Saturday
86,27.593008648570824
87,27.28459729562148
88,25.54474926883778
89,26.44311353450568
90,26.2446931066749
91,24.349291893824863
2,2, 5, 4, 0, 5,10.00,20.00,Saturday
86,27.555777481426384
87,27.24032583721651
88,25.234544400191227
89,26.392521081166668
90,26.189083333302976
91,25.162168989756525
2,2, 5, 4, 0, 5,20.00,30.00,Saturday
86,27.505437938569103
87,27.17366239892989
88,25.161890979410033
89,26.329333283056948
90,26.120062370783427
91,25.383789270245168
2,2, 5, 4, 0, 5,30.00,40.00,Saturday
86,27.468199578356538
87,27.121831742699567
88,25.127118641304258
89,26.271735451148957
90,26.057082221665625
91,25.395864824709514
2,2, 5, 4, 0, 5,40.00,50.00,Saturday
86,27.437153555387917
87,27.0842036767362
88,25.0986466849596
89,26.216845909377704
90,25.997037861148983
91,24.88926988454584
2,2, 5, 4, 0, 5,50.00,60.00,Saturday
86,27.385745297725074
87,27.022061297005864
88,24.931948984567428
89,26.15966361819477
90,25.934694881193236
91,24.94936400201166
2,2, 5, 4, 0, 6, 0.00,10.00,Saturday
86,27.35288336167316
87,26.979891520368253
88,24.780760073210464
89,26.102077194127554
90,25.87188759658836
91,24.413786873610449