Program Version,EnergyPlus, Version 9.5.0-de239b2e5f, YMD=2021.12.08 22:48
1,5,Environment Title[],Latitude[deg],Longitude[deg],Time Zone[],Elevation[m]
2,8,Day of Simulation[],Month[],Day of Month[],DST Indicator[1=yes 0=no],Hour[],StartMinute[],EndMinute[],DayType
3,5,Cumulative Day of Simulation[],Month[],Day of Month[],DST Indicator[1=yes 0=no],DayType  ! When Daily Report Variables Requested
4,2,Cumulative Days of Simulation[],Month[]  ! When Monthly Report Variables Requested
5,1,Cumulative Days of Simulation[] ! When Run Period Report Variables Requested
6,1,Calendar Year of Simulation[] ! When Annual Report Variables Requested
86,1,THERMAL ZONE: CUBI_1,Zone Mean Air Temperature [C] !TimeStep
87,1,THERMAL ZONE: CUBI_2,Zone Mean Air Temperature [C] !TimeStep
88,1,THERMAL ZONE: CUBI_JORGE,Zone Mean Air Temperature [C] !TimeStep
89,1,THERMAL ZONE: TECHO_1,Zone Mean Air Temperature [C] !TimeStep
90,1,THERMAL ZONE: TECHO_2,Zone Mean Air Temperature [C] !TimeStep
91,1,THERMAL ZONE: TECHO_JORGE,Zone Mean Air Temperature [C] !TimeStep
End of Data Dictionary
1,RUN PERIOD 1,  18.85, -99.14,  -6.00,1280.00
2,1, 5, 3, 0, 1, 0.00,10.00,Friday
86,28.26414717307985
87,28.31277849836074
88,25.164439406297526
89,27.22265925725866
90,27.178286653956989
91,25.427909081224695
2,1, 5, 3, 0, 1,10.00,20.00,Friday
86,28.22378328460472
87,28.25606453703756
88,25.68804544297251
89,27.196459180034837
90,27.14693538702627
91,25.996994612983376
2,1, 5, 3, 0, 1,20.00,30.00,Friday
86,28.19245761231156
87,28.212284858016049
88,26.046901842739027
89,27.167123761279286
90,27.112100499110427
91,25.559780213726989
2,1, 5, 3, 0, 1,30.00,40.00,Friday
86,28.116075309053917
87,28.110131648043443
88,25.674711361222465
89,27.126901053975517
90,27.065281357936624
91,25.68373769372446
2,1, 5, 3, 0, 1,40.00,50.00,Friday
86,28.06685680302825
87,28.039164965951295
88,25.603690705331624
89,27.090641299948545
90,27.02250880245049
91,25.430207325945447
2,1, 5, 3, 0, 1,50.00,60.00,Friday
86,28.030832131245377
87,27.98505250260616
88,25.383591745755408
89,27.050890884401775
90,26.97615561907413
91,25.669232737215766
2,1, 5, 3, 0, 2, 0.00,10.00,Friday
86,28.006560955812703
87,27.954665690485684
88,24.89428394330842
89,27.012787485742494
90,26.930340346850735
91,25.567756920709124
2,1, 5, 3, 0, 2,10.00,20.00,Friday
86,27.99168704629328
87,27.926875783431649
88,26.023648683489879
89,26.969022835955238
90,26.879985318705349
91,24.9091265553673
2,1, 5, 3, 0, 2,20.00,30.00,Friday
86,27.955962886695976
87,27.8736583176835
88,26.215814065653299
89,26.91949926703235
90,26.824095394477287
91,24.938423860882148
2,1, 5, 3, 0, 2,30.00,40.00,Friday
86,27.92012987959693
87,27.82024367113731
88,26.254041112288986
89,26.867231506140393
90,26.766368619708137
91,24.93419204038273
2,1, 5, 3, 0, 2,40.00,50.00,Friday
86,27.900900156037215
87,27.796012424548729
88,25.683036035786814
89,26.82533032695143
90,26.7189600002445
91,25.20067525854048
2,1, 5, 3, 0, 2,50.00,60.00,Friday
86,27.85116266823207
87,27.731111729733095
88,25.431928499310659
89,26.77100966369811
90,26.658035085676766
91,24.935970427287154
2,1, 5, 3, 0, 3, 0.00,10.00,Friday
86,27.801178578914724
87,27.666999964183977
88,25.447096603219305
89,26.72121233822147
90,26.601822488076058
91,24.75309539748895
2,1, 5, 3, 0, 3,10.00,20.00,Friday
86,27.758262384237598
87,27.613876735053329
88,25.44201283926695
89,26.671710288730329
90,26.54581342830709
91,24.652949904059175
2,1, 5, 3, 0, 3,20.00,30.00,Friday
86,27.734714472645405
87,27.587268878601454
88,24.89445602869263
89,26.62831868461096
90,26.496623455119573
91,24.97565138273152
2,1, 5, 3, 0, 3,30.00,40.00,Friday
86,27.68709749232256
87,27.526264083909358
88,25.180732376667508
89,26.57396401183663
90,26.435581263585087
91,24.50341620455842
2,1, 5, 3, 0, 3,40.00,50.00,Friday
86,27.654644041207175
87,27.486586220748444
88,24.43980199306002
89,26.527174257249827
90,26.382657222095426
91,25.165157499895757
2,1, 5, 3, 0, 3,50.00,60.00,Friday
86,27.621583142279456
87,27.44406413733735
88,24.659919759780416
89,26.47831022886004
90,26.327637232833398
91,24.43717881864392
2,1, 5, 3, 0, 4, 0.00,10.00,Friday
86,27.57922126246717
87,27.391155764367477
88,24.11189826694996
89,26.42719731662486
90,26.27032777188711
91,25.133328491565295
2,1, 5, 3, 0, 4,10.00,20.00,Friday
86,27.54453859912293
87,27.345875596921084
88,23.976451431591614
89,26.375572139700965
90,26.212511433174489
91,25.37031217827262
2,1, 5, 3, 0, 4,20.00,30.00,Friday
86,27.49897982889645
87,27.287972208201219
88,23.930746235291588
89,26.322562022740955
90,26.153460482859388
91,24.623354079869825
2,1, 5, 3, 0, 4,30.00,40.00,Friday
86,27.456726424142376
87,27.235101489033988
88,23.61992197573771
89,26.271374068548086
90,26.09651343024619
91,25.178066436033949
2,1, 5, 3, 0, 4,40.00,50.00,Friday
86,27.40250591342302
87,27.167395227238147
88,23.534172562607777
89,26.21393079490018
90,26.03300766646128
91,24.385005155133297
2,1, 5, 3, 0, 4,50.00,60.00,Friday
86,27.339936045013169
87,27.08792453825244
88,23.2884626160164
89,26.15509249094694
90,25.96812450198243
91,24.48196684848081
2,1, 5, 3, 0, 5, 0.00,10.00,Friday
86,27.301527193250025
87,27.039405033074144
88,23.20955836536563
89,26.098412605352999
90,25.905727299344034
91,24.864071564655764
2,1, 5, 3, 0, 5,10.00,20.00,Friday
86,27.2585166776285
87,26.98695395354229
88,22.90850293378706
89,26.04739529647906
90,25.849718320824999
91,24.54312769533117
2,1, 5, 3, 0, 5,20.00,30.00,Friday
86,27.19369834337109
87,26.901682966745928
88,23.27615572411048
89,25.978965874712288
90,25.775045777283475
91,24.142151421023028
2,1, 5, 3, 0, 5,30.00,40.00,Friday
86,27.149955019914367
87,26.843282520074287
88,23.186671068668134
89,25.919753063325964
90,25.71041277987692
91,24.267626037254965
2,1, 5, 3, 0, 5,40.00,50.00,Friday
86,27.118268342351667
87,26.799740163749975
88,23.323989127723075
89,25.858127411269487
90,25.643285150923015
91,24.08331891656387
2,1, 5, 3, 0, 5,50.00,60.00,Friday
86,27.092186277438949
87,26.76500330061463
88,23.646221991011296
89,25.800406574012024
90,25.580362725440087
91,23.467235860879236
2,1, 5, 3, 0, 6, 0.00,10.00,Friday
86,27.051701225289184
87,26.71166477063742
88,23.735890437052999
89,25.737672308859105
90,25.51211427507552
91,23.65536684635871
2,1, 5, 3, 0, 6,10.00,20.00,Friday
86,26.992001376571886
87,26.642867685916707
88,23.087008469008056
89,25.677895934294744
90,25.44694706734688
91,23.34181733380273
2,1, 5, 3, 0, 6,20.00,30.00,Friday
86,26.93759043828132
87,26.577871122873288
88,22.672125753649739
89,25.619717918985736
90,25.38351345759498
91,23.909825036393508
2,1, 5, 3, 0, 6,30.00,40.00,Friday
86,26.87203451884244
87,26.503115366444129
88,22.12826717465712
89,25.561620004971024
90,25.320060901935208
91,23.73939309104383
2,1, 5, 3, 0, 6,40.00,50.00,Friday
86,26.82218094830626
87,26.441296176753025
88,22.32899302488831
89,25.499198995298568
90,25.252091665223323
91,23.15373999580835
2,1, 5, 3, 0, 6,50.00,60.00,Friday
86,26.778205813004239
87,26.386670908181367
88,22.39229908381801
89,25.439750619236265
90,25.187396176329814
91,22.978349038258878
2,1, 5, 3, 0, 7, 0.00,10.00,Friday
86,26.699751590284416
87,26.289255321697298
88,22.335451808434667
89,25.36759112029055
90,25.109192436476666
91,23.134091989369609
2,1, 5, 3, 0, 7,10.00,20.00,Friday
86,26.651065670889058
87,26.22577729132622
88,22.401948688639917
89,25.301841607198328
90,25.037927115358515
91,23.277662969815
2,1, 5, 3, 0, 7,20.00,30.00,Friday
86,26.636989213300553
87,26.203044023332756
88,23.32262561662787
89,25.237928946584476
90,24.968665113325426
91,22.35331982523242
2,1, 5, 3, 0, 7,30.00,40.00,Friday
86,26.596157356535544
87,26.15146373965182
88,23.325385637468579
89,25.173623488659396
90,24.899040756122227
91,22.317952488080715
2,1, 5, 3, 0, 7,40.00,50.00,Friday
86,26.547027134917245
87,26.089592466471207
88,23.124763836363877
89,25.104728599494508
90,24.82442031172995
91,22.489431833861106
2,1, 5, 3, 0, 7,50.00,60.00,Friday
86,26.53111730014465
87,26.06732078709056
88,22.79637535169539
89,25.04710630973232
90,24.76179778841123
91,22.802916426487376
2,1, 5, 3, 0, 8, 0.00,10.00,Friday
86,26.49269309509755
87,26.016247287630536
88,22.27121943416619
89,24.980737148328048
90,24.68976733922365
91,23.50888881592062
2,1, 5, 3, 0, 8,10.00,20.00,Friday
86,26.46175442001885
87,25.974689761334017
88,22.107441059567809
89,24.918637641238847
90,24.62224153501828
91,23.738183188376835
2,1, 5, 3, 0, 8,20.00,30.00,Friday
86,26.478937294927893
87,25.985859912142254
88,22.745186950886123
89,24.863928299845019
90,24.562547543399487
91,23.240376703993
2,1, 5, 3, 0, 8,30.00,40.00,Friday
86,26.50075716807553
87,25.996422079843108
88,23.70665517612521
89,24.807799206537568
90,24.500951881643347
91,23.051042442507638
2,1, 5, 3, 0, 8,40.00,50.00,Friday
86,26.53510897359807
87,26.019569238179508
88,24.21937355039572
89,24.75358230188212
90,24.44060894646273
91,23.44574216855088
2,1, 5, 3, 0, 8,50.00,60.00,Friday
86,26.57267039160549
87,26.044105007704926
88,24.455232805857596
89,24.7022783754017
90,24.38241148658302
91,23.708594192329906
2,1, 5, 3, 0, 9, 0.00,10.00,Friday
86,26.61198748634316
87,26.07566822133867
88,24.834084001273184
89,24.660208746422567
90,24.333020615852214
91,24.098690155150459
2,1, 5, 3, 0, 9,10.00,20.00,Friday
86,26.660414886549956
87,26.109111288811744
88,25.216306668687517
89,24.62111716377648
90,24.28592713369809
91,24.03853148619357
2,1, 5, 3, 0, 9,20.00,30.00,Friday
86,26.680999503195407
87,26.120733106118569
88,25.264398655859709
89,24.590985029374968
90,24.24810339012432
91,24.04970328955353
2,1, 5, 3, 0, 9,30.00,40.00,Friday
86,26.69515247579563
87,26.13043636182114
88,25.36632304401359
89,24.568694310693798
90,24.21863795329332
91,24.138190955362775
2,1, 5, 3, 0, 9,40.00,50.00,Friday
86,26.722618228359818
87,26.155513599652467
88,25.555220999430334
89,24.553471729839523
90,24.197374170157834
91,24.283059670767046
2,1, 5, 3, 0, 9,50.00,60.00,Friday
86,26.75850746922048
87,26.190360687866677
88,25.71059801322972
89,24.543991600392685
90,24.182939463198847
91,24.190340319005317
2,1, 5, 3, 0,10, 0.00,10.00,Friday
86,26.78794112739089
87,26.2178474826504
88,26.04160223083131
89,24.540839588944495
90,24.176282015496179
91,24.59737076480819
2,1, 5, 3, 0,10,10.00,20.00,Friday
86,26.8445675196341
87,26.272193321174045
88,26.419914932714844
89,24.540877520350536
90,24.1729035082529
91,24.698687808879059
2,1, 5, 3, 0,10,20.00,30.00,Friday
86,26.888923930668548
87,26.318696024805158
88,26.650458765738685
89,24.5463951111254
90,24.17604050903357
91,24.898466321134845
2,1, 5, 3, 0,10,30.00,40.00,Friday
86,26.91953196742324
87,26.35914911286056
88,26.611561409990985
89,24.55746210747277
90,24.18551331996449
91,24.894259967491128
2,1, 5, 3, 0,10,40.00,50.00,Friday
86,26.946894211694447
87,26.400963852589866
88,26.557202430624483
89,24.572734844843187
90,24.19974482673553
91,25.159718265406985
2,1, 5, 3, 0,10,50.00,60.00,Friday
86,26.959240947840187
87,26.422655157190929
88,26.45747369043424
89,24.590940846574545
90,24.21759594191019
91,24.68791991868162
2,1, 5, 3, 0,11, 0.00,10.00,Friday
86,26.992338083840396
87,26.46796090528874
88,26.598627036154978
89,24.614707296908536
90,24.2414050222615
91,24.84115297909948
2,1, 5, 3, 0,11,10.00,20.00,Friday
86,27.03386948692123
87,26.52152129045253
88,26.961130851788267
89,24.641313245384216
90,24.26858960550181
91,24.82436698911907
2,1, 5, 3, 0,11,20.00,30.00,Friday
86,27.105380603182537
87,26.61376942322496
88,27.29364068533927
89,24.67244929904823
90,24.300551982776225
91,24.82613576414046
2,1, 5, 3, 0,11,30.00,40.00,Friday
86,27.135234014124486
87,26.649650653071626
88,27.437127281543689
89,24.702674887292205
90,24.33188928300404
91,25.69727636748925
2,1, 5, 3, 0,11,40.00,50.00,Friday
86,27.16829472154496
87,26.692932413680226
88,27.52148824179143
89,24.735188095780857
90,24.365634264821084
91,25.196956223615567
2,1, 5, 3, 0,11,50.00,60.00,Friday
86,27.22614669096825
87,26.767845934756318
88,27.699428350553707
89,24.775683414323056
90,24.40750140088879
91,25.125640330274729
2,1, 5, 3, 0,12, 0.00,10.00,Friday
86,27.286205593719307
87,26.84057265660573
88,28.275386211862
89,24.816143335155556
90,24.44926200413407
91,26.06914634625554
2,1, 5, 3, 0,12,10.00,20.00,Friday
86,27.34105348982915
87,26.909587850341475
88,28.286288590890427
89,24.858528875057258
90,24.49288235979252
91,25.855251464955797
2,1, 5, 3, 0,12,20.00,30.00,Friday
86,27.40060574133592
87,26.978862703287104
88,28.52151988934646
89,24.90607351714189
90,24.541753465416183
91,26.978251937069119
2,1, 5, 3, 0,12,30.00,40.00,Friday
86,27.446340139921035
87,27.036560827362558
88,28.923129668666836
89,24.949787320133465
90,24.586550297856076
91,26.81819703279705
2,1, 5, 3, 0,12,40.00,50.00,Friday
86,27.549494601315947
87,27.158718186780967
88,29.28802186805723
89,25.009848260514838
90,24.647348468632857
91,27.29660499770907
2,1, 5, 3, 0,12,50.00,60.00,Friday
86,27.64100586799985
87,27.263498418818555
88,29.671664372423999
89,25.06491237532249
90,24.70188684993124
91,27.268162073141434
2,1, 5, 3, 0,13, 0.00,10.00,Friday
86,27.70617823635031
87,27.336796692555205
88,30.06545218649665
89,25.12212261515346
90,24.76370495295064
91,28.298023090414966
2,1, 5, 3, 0,13,10.00,20.00,Friday
86,27.74877395213283
87,27.390429994358283
88,30.206958735459716
89,25.18434631309755
90,24.830605967481305
91,27.312993815651756
2,1, 5, 3, 0,13,20.00,30.00,Friday
86,27.783208695055678
87,27.432111245885595
88,30.075190231074314
89,25.24820600823634
90,24.902717137441376
91,26.873855314909876
2,1, 5, 3, 0,13,30.00,40.00,Friday
86,27.823233801379627
87,27.480320276422995
88,30.03216685849061
89,25.316427553120698
90,24.981847911352746
91,28.226243179801604
2,1, 5, 3, 0,13,40.00,50.00,Friday
86,27.889298162042388
87,27.56369951117297
88,30.068367681613709
89,25.398886138845194
90,25.07130267599957
91,27.966140137105229
2,1, 5, 3, 0,13,50.00,60.00,Friday
86,27.91083349911207
87,27.599435672806647
88,30.141367820288019
89,25.477353847632935
90,25.15720485958573
91,28.67512574998339
2,1, 5, 3, 0,14, 0.00,10.00,Friday
86,27.94955508543255
87,27.651101936050666
88,30.51273335151884
89,25.547760286787907
90,25.23582398846872
91,28.741083603614955
2,1, 5, 3, 0,14,10.00,20.00,Friday
86,28.053535954346818
87,27.778725583669219
88,30.629675720332334
89,25.638908329236615
90,25.336728935670917
91,28.982696529210768
2,1, 5, 3, 0,14,20.00,30.00,Friday
86,28.127605963269195
87,27.873048444363236
88,31.00079786769352
89,25.724523144594359
90,25.432687741092708
91,28.22243947053221
2,1, 5, 3, 0,14,30.00,40.00,Friday
86,28.205634282830009
87,27.977072071014868
88,30.85038874466876
89,25.808359095763739
90,25.528191541722316
91,28.507144127536536
2,1, 5, 3, 0,14,40.00,50.00,Friday
86,28.29981487386018
87,28.089570183540894
88,31.43367771265097
89,25.888006190544979
90,25.62140506335227
91,28.448496883718975
2,1, 5, 3, 0,14,50.00,60.00,Friday
86,28.40391747691835
87,28.217547065422118
88,31.464097112590279
89,25.976763451884979
90,25.726822380046749
91,30.17361019868452
2,1, 5, 3, 0,15, 0.00,10.00,Friday
86,28.37394108000224
87,28.213148667879289
88,31.137072797287094
89,26.067285003872706
90,25.837207126866266
91,29.079576045473
2,1, 5, 3, 0,15,10.00,20.00,Friday
86,28.420036970232805
87,28.289972648166967
88,31.28354922926462
89,26.154181631981098
90,25.944882650463588
91,29.64125333857792
2,1, 5, 3, 0,15,20.00,30.00,Friday
86,28.52961682204551
87,28.43873962207867
88,31.7291913691919
89,26.25604071716813
90,26.076609419041536
91,28.797433489627147
2,1, 5, 3, 0,15,30.00,40.00,Friday
86,28.672240190468565
87,28.62008004568481
88,32.80955468567573
89,26.3531696022467
90,26.198845529558697
91,31.801474931215883
2,1, 5, 3, 0,15,40.00,50.00,Friday
86,28.723233946042748
87,28.706820040649875
88,32.38376993844449
89,26.449941292488526
90,26.31503697352115
91,30.62854450415223
2,1, 5, 3, 0,15,50.00,60.00,Friday
86,28.83473779240675
87,28.883894703316078
88,32.130407023962408
89,26.57228060225917
90,26.458716421063479
91,30.22650789913112
2,1, 5, 3, 0,16, 0.00,10.00,Friday
86,28.964009512815829
87,29.06635917869804
88,32.81308941945862
89,26.676313561411815
90,26.584897324451327
91,30.945778068347754
2,1, 5, 3, 0,16,10.00,20.00,Friday
86,28.997676421738509
87,29.128599999769535
88,32.96933374797351
89,26.758319585063384
90,26.688538101716135
91,31.419512860204138
2,1, 5, 3, 0,16,20.00,30.00,Friday
86,29.02957127182425
87,29.214342434593737
88,32.34111762608607
89,26.859841342277343
90,26.81603309546322
91,30.15016942949803
2,1, 5, 3, 0,16,30.00,40.00,Friday
86,29.07325375837871
87,29.307258598129434
88,32.55611784196011
89,26.95593507499709
90,26.922041452007514
91,30.741521657239738
2,1, 5, 3, 0,16,40.00,50.00,Friday
86,29.138569517916474
87,29.456268305546368
88,32.6988817994808
89,27.099489049880107
90,27.097229408144178
91,31.031751282148468
2,1, 5, 3, 0,16,50.00,60.00,Friday
86,29.138266999657767
87,29.520331175553236
88,32.478134777002427
89,27.211283339058406
90,27.234709309079105
91,30.86191910455035
2,1, 5, 3, 0,17, 0.00,10.00,Friday
86,29.13187618677129
87,29.547529744498264
88,32.46687018385964
89,27.29936679788542
90,27.341981243955059
91,31.8685074852759
2,1, 5, 3, 0,17,10.00,20.00,Friday
86,29.088456490759488
87,29.55538342779032
88,31.006628336048345
89,27.39242953203354
90,27.454006660478439
91,30.59163409492866
2,1, 5, 3, 0,17,20.00,30.00,Friday
86,29.02180993827572
87,29.571519822367884
88,29.678502283630498
89,27.50344002991694
90,27.58545854011133
91,29.323799582621985
2,1, 5, 3, 0,17,30.00,40.00,Friday
86,29.018166443122835
87,29.59701427510877
88,29.290968163480643
89,27.577377058357628
90,27.67073935450319
91,28.974633128808266
2,1, 5, 3, 0,17,40.00,50.00,Friday
86,28.992933673180184
87,29.63664600267024
88,29.00871880286394
89,27.6822171021591
90,27.79003029389661
91,28.507657737838274
2,1, 5, 3, 0,17,50.00,60.00,Friday
86,29.0173027894666
87,29.700636084849756
88,29.57300665674584
89,27.74889744969611
90,27.863655604141579
91,29.099589364726336
2,1, 5, 3, 0,18, 0.00,10.00,Friday
86,29.02264371958217
87,29.718763347211835
88,28.564792386606884
89,27.800272570658309
90,27.919501913137915
91,28.126906473898566
2,1, 5, 3, 0,18,10.00,20.00,Friday
86,29.00905046281339
87,29.72153047209811
88,28.04824741739263
89,27.84420499739292
90,27.966290515671508
91,27.501779381734904
2,1, 5, 3, 0,18,20.00,30.00,Friday
86,29.00217052680314
87,29.73184641718277
88,27.91503099619537
89,27.88636787613529
90,28.01043001877202
91,27.511662610626034
2,1, 5, 3, 0,18,30.00,40.00,Friday
86,29.025654475051984
87,29.756071310710476
88,28.40051393315747
89,27.91029482039579
90,28.034568869046447
91,27.970814902859766
2,1, 5, 3, 0,18,40.00,50.00,Friday
86,29.063837044951748
87,29.793420175885907
88,28.784462308351946
89,27.933937490835768
90,28.05790234453991
91,28.273792120091277
2,1, 5, 3, 0,18,50.00,60.00,Friday
86,29.09424023747132
87,29.81489148686744
88,29.01558096306396
89,27.944086571505819
90,28.066785314979318
91,28.453256530245065
2,1, 5, 3, 0,19, 0.00,10.00,Friday
86,29.103954561188034
87,29.810856194382937
88,28.812921895251639
89,27.94703622780341
90,28.067835804451783
91,28.31035577235559
2,1, 5, 3, 0,19,10.00,20.00,Friday
86,29.106487177199925
87,29.799416911981849
88,28.938408565477425
89,27.94880866253783
90,28.06756150912184
91,28.49335923710709
2,1, 5, 3, 0,19,20.00,30.00,Friday
86,29.098184450032034
87,29.776618099150459
88,29.181950945507677
89,27.950545504055698
90,28.06725098544357
91,28.56000668856483
2,1, 5, 3, 0,19,30.00,40.00,Friday
86,29.08145065913599
87,29.745010075624138
88,28.97927577273448
89,27.951982196583267
90,28.066622483259054
91,28.35289012607576
2,1, 5, 3, 0,19,40.00,50.00,Friday
86,29.0608054948437
87,29.710849351637586
88,29.010506120200426
89,27.953213150735026
90,28.065723659105005
91,28.34708671684026
2,1, 5, 3, 0,19,50.00,60.00,Friday
86,29.03826146465521
87,29.673822019333135
88,28.78852258334971
89,27.954229476209627
90,28.064511031447478
91,28.25720764691166
2,1, 5, 3, 0,20, 0.00,10.00,Friday
86,29.01808648509742
87,29.63963242125307
88,28.71949036003933
89,27.954659352475596
90,28.06259545433292
91,28.181037321273214
2,1, 5, 3, 0,20,10.00,20.00,Friday
86,28.99612883945301
87,29.605342052813666
88,28.792960346546594
89,27.95405360884535
90,28.05950804201416
91,28.187456318595708
2,1, 5, 3, 0,20,20.00,30.00,Friday
86,28.966905843126879
87,29.563356885180324
88,28.49746057289557
89,27.952138562008078
90,28.054976172391056
91,27.978786841229885
2,1, 5, 3, 0,20,30.00,40.00,Friday
86,28.940514729881444
87,29.52369381595597
88,28.379038788951026
89,27.948736600806315
90,28.04890073185381
91,28.004523096394594
2,1, 5, 3, 0,20,40.00,50.00,Friday
86,28.924486688088263
87,29.496673204107006
88,27.94527295739369
89,27.94433980217876
90,28.042774543521955
91,27.565312445153347
2,1, 5, 3, 0,20,50.00,60.00,Friday
86,28.88469297743273
87,29.43482864213663
88,27.481152283408816
89,27.936573808674447
90,28.033186860729047
91,27.25485781377094
2,1, 5, 3, 0,21, 0.00,10.00,Friday
86,28.847325109839838
87,29.377378661215127
88,27.062056262906127
89,27.927742470401826
90,28.01620779211789
91,26.943981560375059
2,1, 5, 3, 0,21,10.00,20.00,Friday
86,28.83210495344374
87,29.34173207522143
88,27.354846812007837
89,27.91682942394617
90,27.994027166614229
91,27.278485734921895
2,1, 5, 3, 0,21,20.00,30.00,Friday
86,28.82523835607629
87,29.320381427461244
88,28.27763057383748
89,27.90133251453078
90,27.97143273101013
91,27.387964407434497
2,1, 5, 3, 0,21,30.00,40.00,Friday
86,28.815620674356475
87,29.294504199177319
88,28.476077276864314
89,27.881874278475583
90,27.94541881768501
91,27.419825012578739
2,1, 5, 3, 0,21,40.00,50.00,Friday
86,28.79835892032662
87,29.24363819573389
88,28.316460466872458
89,27.850926261334924
90,27.904482873719468
91,27.846500162620488
2,1, 5, 3, 0,21,50.00,60.00,Friday
86,28.77383709437695
87,29.18969772983007
88,27.795267199132789
89,27.824161895161738
90,27.869214781731125
91,27.859056537085399
2,1, 5, 3, 0,22, 0.00,10.00,Friday
86,28.752283529963518
87,29.139910079922225
88,27.51356780852838
89,27.79481061310148
90,27.83061190622503
91,27.267565352089905
2,1, 5, 3, 0,22,10.00,20.00,Friday
86,28.730999077116608
87,29.091914638519176
88,27.180135517070207
89,27.763419270541584
90,27.797944828036319
91,26.990861401817996
2,1, 5, 3, 0,22,20.00,30.00,Friday
86,28.687117367139324
87,29.02322012219618
88,26.663650307764415
89,27.736149414538745
90,27.766769769626529
91,26.60628994951117
2,1, 5, 3, 0,22,30.00,40.00,Friday
86,28.651551541218223
87,28.96469501001516
88,26.94568724534641
89,27.709271435312667
90,27.734082638171807
91,27.330810673533145
2,1, 5, 3, 0,22,40.00,50.00,Friday
86,28.633432542289456
87,28.925138599708224
88,27.110606722693967
89,27.68081380761304
90,27.700943234471127
91,27.416437879528528
2,1, 5, 3, 0,22,50.00,60.00,Friday
86,28.630288451216385
87,28.90862515407221
88,27.851689967922306
89,27.65265253917888
90,27.66864020629167
91,26.783788946357729
2,1, 5, 3, 0,23, 0.00,10.00,Friday
86,28.60682111478136
87,28.869506481593
88,27.288362888001467
89,27.626178822244286
90,27.638292351885583
91,27.09585636429795
2,1, 5, 3, 0,23,10.00,20.00,Friday
86,28.585140025431394
87,28.81760335952039
88,27.16734179880181
89,27.58767348014107
90,27.594954767313344
91,27.635376041001466
2,1, 5, 3, 0,23,20.00,30.00,Friday
86,28.575914908893368
87,28.785771527741006
88,27.4607921624006
89,27.55719372765303
90,27.559864644661944
91,27.233785479075509
2,1, 5, 3, 0,23,30.00,40.00,Friday
86,28.54259143959124
87,28.74012187575719
88,26.591756190781113
89,27.52871188881385
90,27.52663937158566
91,26.60917430023617
2,1, 5, 3, 0,23,40.00,50.00,Friday
86,28.505927648989507
87,28.684433636027454
88,26.46332366263773
89,27.496067122332428
90,27.48903742994524
91,26.793074835790283
2,1, 5, 3, 0,23,50.00,60.00,Friday
86,28.502960694999115
87,28.666400744089026
88,26.84646712641647
89,27.46568336231529
90,27.453704797757668
91,27.181411775132668
2,1, 5, 3, 0,24, 0.00,10.00,Friday
86,28.48602961193184
87,28.62153879742969
88,27.145998903493579
89,27.42889222873277
90,27.412305902611196
91,27.065965723547117
2,1, 5, 3, 0,24,10.00,20.00,Friday
86,28.4660849260137
87,28.578661251486709
88,26.97050902258238
89,27.396321322734239
90,27.37468279812859
91,27.00715631017821
2,1, 5, 3, 0,24,20.00,30.00,Friday
86,28.45406426975885
87,28.55887262075685
88,26.614392492016735
89,27.368998786848836
90,27.34213871558611
91,26.491030620295569
2,1, 5, 3, 0,24,30.00,40.00,Friday
86,28.436775418818877
87,28.525148898339994
88,26.4309392074745
89,27.336318799226495
90,27.3041008967109
91,26.328832368038616
2,1, 5, 3, 0,24,40.00,50.00,Friday
86,28.43089084149188
87,28.504159429876294
88,27.331985594919368
89,27.304921693356527
90,27.26709745884769
91,26.726676890270995
2,1, 5, 3, 0,24,50.00,60.00,Friday
86,28.41568506346117
87,28.470543504115019
88,27.12636586899981
89,27.274551208890324
90,27.23154615335655
91,26.776498988081955
2,2, 5, 4, 0, 1, 0.00,10.00,Saturday
86,28.393132873483368
87,28.437317709023444
88,26.57661630293063
89,27.246648138219677
90,27.19819434189285
91,26.393170127026687
2,2, 5, 4, 0, 1,10.00,20.00,Saturday
86,28.343086642075247
87,28.36450470689422
88,26.112979540145639
89,27.21416081795803
90,27.16013870253915
91,26.06229454680575
2,2, 5, 4, 0, 1,20.00,30.00,Saturday
86,28.2983806751327
87,28.30060259162739
88,25.884142044341357
89,27.185916528299207
90,27.126314329720797
91,25.869959729719509
2,2, 5, 4, 0, 1,30.00,40.00,Saturday
86,28.26132291166844
87,28.249083611950746
88,25.8638551920207
89,27.157984646852726
90,27.09257022959535
91,25.89157481318439
2,2, 5, 4, 0, 1,40.00,50.00,Saturday
86,28.236546037628935
87,28.212036887707844
88,25.93746635597416
89,27.12927734917641
90,27.05793482497083
91,26.006561475316777
2,2, 5, 4, 0, 1,50.00,60.00,Saturday
86,28.21759550813959
87,28.18145586785515
88,26.003138460801489
89,27.09976908360193
90,27.022810406453215
91,26.11709633643825
2,2, 5, 4, 0, 2, 0.00,10.00,Saturday
86,28.209504110881839
87,28.167691534025239
88,26.262298126378956
89,27.07426923946462
90,26.991395727807679
91,26.685350764630223
2,2, 5, 4, 0, 2,10.00,20.00,Saturday
86,28.18616266994724
87,28.129658088057434
88,26.768161438443938
89,27.039377176006128
90,26.9511718221407
91,26.251085260788437
2,2, 5, 4, 0, 2,20.00,30.00,Saturday
86,28.163464519091187
87,28.093543207630686
88,26.99368091209907
89,27.007523664398506
90,26.91401488072756
91,26.20834345972019
2,2, 5, 4, 0, 2,30.00,40.00,Saturday
86,28.14549595327994
87,28.072654566890124
88,26.594529012369678
89,26.980413033183518
90,26.882027928345793
91,26.156649168421344
2,2, 5, 4, 0, 2,40.00,50.00,Saturday
86,28.118055620973249
87,28.03843292715728
88,26.41153762389874
89,26.948195840805263
90,26.84463664330561
91,26.21365122134552
2,2, 5, 4, 0, 2,50.00,60.00,Saturday
86,28.08550034551501
87,27.99318220826103
88,26.54661781450745
89,26.913758774359726
90,26.80485639625661
91,26.03648897451762
2,2, 5, 4, 0, 3, 0.00,10.00,Saturday
86,28.059385695783726
87,27.960162782400887
88,26.062655708600496
89,26.88768906263524
90,26.77399693587951
91,26.49353141834681
2,2, 5, 4, 0, 3,10.00,20.00,Saturday
86,28.00042497203426
87,27.88340393461933
88,25.662411664397625
89,26.853652657630147
90,26.73411334235214
91,26.405919776917725
2,2, 5, 4, 0, 3,20.00,30.00,Saturday
86,27.946608519620548
87,27.81473767291839
88,25.29675321754931
89,26.823863491708339
90,26.698937924627708
91,25.615117473995107
2,2, 5, 4, 0, 3,30.00,40.00,Saturday
86,27.901108355287865
87,27.757135490618987
88,25.20018140061143
89,26.79245423607984
90,26.662083905367206
91,25.775501356803284
2,2, 5, 4, 0, 3,40.00,50.00,Saturday
86,27.882319542611115
87,27.733937072540976
88,25.22906266570459
89,26.761697709124897
90,26.62621107176514
91,26.111953477823208
2,2, 5, 4, 0, 3,50.00,60.00,Saturday
86,27.818687816796243
87,27.657279348357556
88,24.88471192670456
89,26.723868296074845
90,26.582728019838755
91,25.864289136033017
2,2, 5, 4, 0, 4, 0.00,10.00,Saturday
86,27.751958327487217
87,27.579240387887987
88,24.43757580543773
89,26.688524456724179
90,26.542197088583526
91,25.705867077532547
2,2, 5, 4, 0, 4,10.00,20.00,Saturday
86,27.714148381036219
87,27.53612706901681
88,24.015802936426029
89,26.65249850428024
90,26.501165704186336
91,24.633577257677275
2,2, 5, 4, 0, 4,20.00,30.00,Saturday
86,27.659119817540458
87,27.47118402227254
88,23.860505276063788
89,26.610309563362589
90,26.45360052607783
91,24.832275809901007
2,2, 5, 4, 0, 4,30.00,40.00,Saturday
86,27.628027791409268
87,27.431328577011997
88,24.346529286358597
89,26.567201936844478
90,26.405298743416318
91,24.513438282971899
2,2, 5, 4, 0, 4,40.00,50.00,Saturday
86,27.5618664381987
87,27.34916550907848
88,23.800583499716234
89,26.5160272171713
90,26.348672937661548
91,24.739140248711704
2,2, 5, 4, 0, 4,50.00,60.00,Saturday
86,27.52770847603024
87,27.303676572325374
88,23.82329394884661
89,26.46703743750286
90,26.294464139674937
91,25.529557761658894
2,2, 5, 4, 0, 5, 0.00,10.00,Saturday
86,27.49562447096281
87,27.264490811385799
88,23.98811088764943
89,26.41659361493945
90,26.238892031875595
91,24.294586799795817
2,2, 5, 4, 0, 5,10.00,20.00,Saturday
86,27.45829943599992
87,27.220296047705327
88,23.527728823599426
89,26.36607364608348
90,26.183305429490586
91,25.112864359088549
2,2, 5, 4, 0, 5,20.00,30.00,Saturday
86,27.407462654090467
87,27.153694686541149
88,23.597951532137459
89,26.302822242864897
90,26.11426748973335
91,25.325210460635888
2,2, 5, 4, 0, 5,30.00,40.00,Saturday
86,27.369723661591946
87,27.101903047757273
88,23.595595290459554
89,26.24524423170058
90,26.05129375441809
91,25.04483099254376
2,2, 5, 4, 0, 5,40.00,50.00,Saturday
86,27.32693356656392
87,27.04771294831936
88,23.48853586620778
89,26.18694682297239
90,25.987571952838804
91,24.750869300529474
2,2, 5, 4, 0, 5,50.00,60.00,Saturday
86,27.28949456634632
87,27.003850856605199
88,23.239574589764847
89,26.132367705891455
90,25.927938885005177
91,25.082910304485809
2,2, 5, 4, 0, 6, 0.00,10.00,Saturday
86,27.231023964887635
87,26.932111185815985
88,23.0899630532431
89,26.073593351427566
90,25.863981412311838
91,24.006396534248546
2,2, 5, 4, 0, 6,10.00,20.00,Saturday