Program Version,EnergyPlus, Version 9.5.0-de239b2e5f, YMD=2021.12.09 02:47
1,5,Environment Title[],Latitude[deg],Longitude[deg],Time Zone[],Elevation[m]
2,8,Day of Simulation[],Month[],Day of Month[],DST Indicator[1=yes 0=no],Hour[],StartMinute[],EndMinute[],DayType
3,5,Cumulative Day of Simulation[],Month[],Day of Month[],DST Indicator[1=yes 0=no],DayType  ! When Daily Report Variables Requested
4,2,Cumulative Days of Simulation[],Month[]  ! When Monthly Report Variables Requested
5,1,Cumulative Days of Simulation[] ! When Run Period Report Variables Requested
6,1,Calendar Year of Simulation[] ! When Annual Report Variables Requested
86,1,THERMAL ZONE: CUBI_1,Zone Mean Air Temperature [C] !TimeStep
87,1,THERMAL ZONE: CUBI_2,Zone Mean Air Temperature [C] !TimeStep
88,1,THERMAL ZONE: CUBI_JORGE,Zone Mean Air Temperature [C] !TimeStep
89,1,THERMAL ZONE: TECHO_1,Zone Mean Air Temperature [C] !TimeStep
90,1,THERMAL ZONE: TECHO_2,Zone Mean Air Temperature [C] !TimeStep
91,1,THERMAL ZONE: TECHO_JORGE,Zone Mean Air Temperature [C] !TimeStep
End of Data Dictionary
1,RUN PERIOD 1,  18.85, -99.14,  -6.00,1280.00
2,1, 5, 3, 0, 1, 0.00,10.00,Friday
86,28.03656207376768
87,27.92698851456168
88,26.68367595182769
89,27.160796021352703
90,27.068522718042897
91,25.70344615761218
2,1, 5, 3, 0, 1,10.00,20.00,Friday
86,27.94369357182189
87,27.81447977228491
88,26.515676189279245
89,27.13137666800567
90,27.033623990683937
91,25.99178089561336
2,1, 5, 3, 0, 1,20.00,30.00,Friday
86,27.93734291468968
87,27.79611973701958
88,26.977209680232254
89,27.101820195559428
90,26.998356844310757
91,25.509784397345557
2,1, 5, 3, 0, 1,30.00,40.00,Friday
86,27.90716982496136
87,27.749244866094153
88,26.97308333729652
89,27.06598783027393
90,26.956338788639085
91,25.72737270288736
2,1, 5, 3, 0, 1,40.00,50.00,Friday
86,27.87257492326506
87,27.704342084341304
88,26.888110441019476
89,27.029624504056725
90,26.91380781115273
91,25.38958334977886
2,1, 5, 3, 0, 1,50.00,60.00,Friday
86,27.825092482740918
87,27.64073897205852
88,26.68265459184673
89,26.987112828960027
90,26.865567040071537
91,25.590243231585818
2,1, 5, 3, 0, 2, 0.00,10.00,Friday
86,27.794036310153943
87,27.600238291379278
88,26.35905269104817
89,26.946237638984134
90,26.817785413557688
91,25.409804681661237
2,1, 5, 3, 0, 2,10.00,20.00,Friday
86,27.75135178282143
87,27.53627497115892
88,26.6740457192888
89,26.896296803803549
90,26.761110634122283
91,24.98911386036492
2,1, 5, 3, 0, 2,20.00,30.00,Friday
86,27.713824132994945
87,27.482239243075936
88,26.89244825461558
89,26.850687079495257
90,26.707168914589734
91,25.01190720846935
2,1, 5, 3, 0, 2,30.00,40.00,Friday
86,27.69127695212032
87,27.448542089173896
88,26.994992363187575
89,26.802721398274416
90,26.651632353224796
91,24.912973449713925
2,1, 5, 3, 0, 2,40.00,50.00,Friday
86,27.67742076074513
87,27.432544844121219
88,26.74835800098963
89,26.760119934189495
90,26.602944604198798
91,25.207037831267479
2,1, 5, 3, 0, 2,50.00,60.00,Friday
86,27.644372787846519
87,27.394115879754936
88,26.591324601867887
89,26.709826599518779
90,26.546066922783497
91,24.915014628244245
2,1, 5, 3, 0, 3, 0.00,10.00,Friday
86,27.59768404197773
87,27.33708747113335
88,26.570251232443384
89,26.655531915398528
90,26.485817114859726
91,24.73690944397701
2,1, 5, 3, 0, 3,10.00,20.00,Friday
86,27.55225663451435
87,27.279310983129805
88,26.55906867737852
89,26.60609274179098
90,26.430606725025365
91,24.660775801627886
2,1, 5, 3, 0, 3,20.00,30.00,Friday
86,27.52926666108867
87,27.251656396921548
88,26.24091863159814
89,26.56411493655181
90,26.38335759147118
91,24.930954202425114
2,1, 5, 3, 0, 3,30.00,40.00,Friday
86,27.482949017713407
87,27.19058415804283
88,26.302255699076026
89,26.509534050790035
90,26.32219167629939
91,24.523049950836545
2,1, 5, 3, 0, 3,40.00,50.00,Friday
86,27.45335282845739
87,27.154766205832268
88,25.894141458950405
89,26.463321168022735
90,26.270391891340144
91,25.12360469986016
2,1, 5, 3, 0, 3,50.00,60.00,Friday
86,27.421493108941435
87,27.113665731763633
88,25.98928035026774
89,26.414694040348537
90,26.215997910822368
91,24.432083980583799
2,1, 5, 3, 0, 4, 0.00,10.00,Friday
86,27.36259367617572
87,27.038602556483619
88,25.63785795419909
89,26.359535898985148
90,26.1544355937995
91,24.94307375535258
2,1, 5, 3, 0, 4,10.00,20.00,Friday
86,27.341885535424649
87,27.011875026462357
88,25.464518816964107
89,26.31330669521717
90,26.10294612363711
91,25.32957654021215
2,1, 5, 3, 0, 4,20.00,30.00,Friday
86,27.300601456915257
87,26.95971678576934
88,25.41485461481854
89,26.25850864545074
90,26.04213850662511
91,24.54673840616629
2,1, 5, 3, 0, 4,30.00,40.00,Friday
86,27.26035161990427
87,26.909709127308476
88,25.166556379387978
89,26.2059378578732
90,25.983996759626139
91,25.09915099222948
2,1, 5, 3, 0, 4,40.00,50.00,Friday
86,27.18841384303609
87,26.81954298595177
88,25.027660331475546
89,26.14724593828587
90,25.91935571712628
91,24.4287368429543
2,1, 5, 3, 0, 4,50.00,60.00,Friday
86,27.13262181137276
87,26.74875015314302
88,24.821950665866063
89,26.090646760375298
90,25.857182779553903
91,24.66450209047221
2,1, 5, 3, 0, 5, 0.00,10.00,Friday
86,27.089372648267845
87,26.693741288078479
88,24.722800534025138
89,26.032106402992118
90,25.79308696157797
91,24.597813327612898
2,1, 5, 3, 0, 5,10.00,20.00,Friday
86,27.043317226118803
87,26.637257418845839
88,24.52358691090002
89,25.974049944296497
90,25.72972830315552
91,24.71746035750979
2,1, 5, 3, 0, 5,20.00,30.00,Friday
86,27.024831056494283
87,26.610426932365795
88,24.813382498027044
89,25.91818333608376
90,25.66891184163101
91,23.970930688922566
2,1, 5, 3, 0, 5,30.00,40.00,Friday
86,26.98759271879134
87,26.56184637692316
88,24.78230418857811
89,25.85908876852557
90,25.604733833163786
91,24.14898904434533
2,1, 5, 3, 0, 5,40.00,50.00,Friday
86,26.95040518298796
87,26.510680728848766
88,24.81334552467918
89,25.793875824672634
90,25.53402144108759
91,23.926750044626365
2,1, 5, 3, 0, 5,50.00,60.00,Friday
86,26.92643287860208
87,26.47851956928334
88,25.024295709470615
89,25.738922283779144
90,25.474437619252045
91,23.39945118533354
2,1, 5, 3, 0, 6, 0.00,10.00,Friday
86,26.88687049964355
87,26.426263333977077
88,25.10369387393123
89,25.677085975447527
90,25.40742092926067
91,23.68940113213931
2,1, 5, 3, 0, 6,10.00,20.00,Friday
86,26.8279582702982
87,26.35843981055595
88,24.718732532211399
89,25.616788877286937
90,25.34198283148896
91,23.2900538702814
2,1, 5, 3, 0, 6,20.00,30.00,Friday
86,26.777571977403274
87,26.298193161769239
88,24.407527582048876
89,25.55968646265675
90,25.27995656275648
91,23.863112050654629
2,1, 5, 3, 0, 6,30.00,40.00,Friday
86,26.712724291346594
87,26.22430130159623
88,24.019910392006069
89,25.501671027786789
90,25.21690289027419
91,23.606249557086387
2,1, 5, 3, 0, 6,40.00,50.00,Friday
86,26.665054714628988
87,26.164950026892528
88,24.092902651822884
89,25.43879577347458
90,25.1486507900265
91,23.150217793166286
2,1, 5, 3, 0, 6,50.00,60.00,Friday
86,26.604783596146406
87,26.08943067038626
88,24.16118347247253
89,25.373692731839634
90,25.078102849142597
91,22.871726027992673
2,1, 5, 3, 0, 7, 0.00,10.00,Friday
86,26.570694358232175
87,26.046653869623819
88,24.062663367522619
89,25.311872083892898
90,25.01125941419393
91,23.213398025921316
2,1, 5, 3, 0, 7,10.00,20.00,Friday
86,26.531306382369796
87,25.994412243154654
88,24.035174003341404
89,25.24643582241546
90,24.94058966693272
91,23.301533930182026
2,1, 5, 3, 0, 7,20.00,30.00,Friday
86,26.50269748507167
87,25.95310548370462
88,24.566509113164544
89,25.178286925659625
90,24.86704318936865
91,22.366989192274315
2,1, 5, 3, 0, 7,30.00,40.00,Friday
86,26.45218931222414
87,25.889160963250736
88,24.68387409038918
89,25.114246052783547
90,24.79793336375478
91,22.338370579347264
2,1, 5, 3, 0, 7,40.00,50.00,Friday
86,26.40297676506341
87,25.82683247568467
88,24.59729648165102
89,25.0461772959992
90,24.72440993845296
91,22.485016245402084
2,1, 5, 3, 0, 7,50.00,60.00,Friday
86,26.391025959596854
87,25.809342177408987
88,24.367686585222847
89,24.988669285779534
90,24.66217181156019
91,22.8067108828916
2,1, 5, 3, 0, 8, 0.00,10.00,Friday
86,26.356279083288457
87,25.76241653286655
88,23.916630721774604
89,24.92251983600347
90,24.590513989440713
91,23.84286850400622
2,1, 5, 3, 0, 8,10.00,20.00,Friday
86,26.331941280080117
87,25.729034655604143
88,23.73092073895889
89,24.86245431394466
90,24.52539974389238
91,23.601561119729995
2,1, 5, 3, 0, 8,20.00,30.00,Friday
86,26.33758734531711
87,25.72418051579725
88,24.11127377051826
89,24.80295299131511
90,24.460755096588089
91,23.341780385823975
2,1, 5, 3, 0, 8,30.00,40.00,Friday
86,26.364171780600388
87,25.74134026745089
88,24.70375043124097
89,24.749539596224147
90,24.402288442876065
91,23.060136655661628
2,1, 5, 3, 0, 8,40.00,50.00,Friday
86,26.39955266988758
87,25.765895678070139
88,24.99602368200015
89,24.69950961532085
90,24.34674027401016
91,23.500680457149195
2,1, 5, 3, 0, 8,50.00,60.00,Friday
86,26.439289525821338
87,25.792156276577033
88,25.24096113716983
89,24.646046058052915
90,24.28630528458785
91,23.737185205636686
2,1, 5, 3, 0, 9, 0.00,10.00,Friday
86,26.47873029482053
87,25.82330692103787
88,25.469792916622965
89,24.6038695840141
90,24.2369848037029
91,24.139104198528764
2,1, 5, 3, 0, 9,10.00,20.00,Friday
86,26.514196875830437
87,25.847439452205653
88,25.690778737122924
89,24.567084333857456
90,24.1926070169913
91,24.12282743432428
2,1, 5, 3, 0, 9,20.00,30.00,Friday
86,26.536410011183777
87,25.859679923579255
88,25.783689822033986
89,24.53476922849465
90,24.15229737886482
91,24.114472911580007
2,1, 5, 3, 0, 9,30.00,40.00,Friday
86,26.556693305750544
87,25.872232644263137
88,25.88940249001504
89,24.51308114736363
90,24.123735613466456
91,24.17207559993522
2,1, 5, 3, 0, 9,40.00,50.00,Friday
86,26.58619043757471
87,25.89650488314954
88,26.013705206491019
89,24.49874369480284
90,24.103604790079666
91,24.304593317266578
2,1, 5, 3, 0, 9,50.00,60.00,Friday
86,26.619794891609783
87,25.9274210393939
88,26.103555713134413
89,24.489543644010398
90,24.08955604625608
91,24.230349578148905
2,1, 5, 3, 0,10, 0.00,10.00,Friday
86,26.645908391367898
87,25.950754173062227
88,26.36616866284649
89,24.486645400533285
90,24.083274407578054
91,24.61387984145442
2,1, 5, 3, 0,10,10.00,20.00,Friday
86,26.686812084266255
87,25.988973158635998
88,26.6422390244595
89,24.487377388858709
90,24.080914425957049
91,24.802929486974994
2,1, 5, 3, 0,10,20.00,30.00,Friday
86,26.730357827525084
87,26.031978050379064
88,26.850157021437487
89,24.49315493418595
90,24.08417837846114
91,24.933984383805755
2,1, 5, 3, 0,10,30.00,40.00,Friday
86,26.765444472334829
87,26.073640717205714
88,26.868772084183975
89,24.5043802231742
90,24.093924501433443
91,24.860778390844105
2,1, 5, 3, 0,10,40.00,50.00,Friday
86,26.794530446223456
87,26.113791780878306
88,26.828900684731964
89,24.520025928417778
90,24.108680425245553
91,25.122042026965926
2,1, 5, 3, 0,10,50.00,60.00,Friday
86,26.804922422409456
87,26.12977882662371
88,26.82949609194668
89,24.538577939476967
90,24.126931077721485
91,24.687581477412654
2,1, 5, 3, 0,11, 0.00,10.00,Friday
86,26.834827751142666
87,26.169684253602108
88,26.94894811170771
89,24.562723203502963
90,24.15121486381999
91,24.905895299775783
2,1, 5, 3, 0,11,10.00,20.00,Friday
86,26.88825091813975
87,26.24293389011047
88,27.164157342352188
89,24.591910438231577
90,24.18103436392947
91,24.858293435119554
2,1, 5, 3, 0,11,20.00,30.00,Friday
86,26.92356817219472
87,26.288250152263026
88,27.31425967829395
89,24.61913688560667
90,24.209201661263326
91,25.14201938641714
2,1, 5, 3, 0,11,30.00,40.00,Friday
86,26.964813631870159
87,26.338612978126176
88,27.46824110540637
89,24.650815343562259
90,24.242009468542319
91,25.71129441905092
2,1, 5, 3, 0,11,40.00,50.00,Friday
86,27.001197853740089
87,26.386489490401119
88,27.567935888729929
89,24.68457173934602
90,24.277033743783549
91,25.289888561920824
2,1, 5, 3, 0,11,50.00,60.00,Friday
86,27.057800515360549
87,26.460060927014607
88,27.731749125526524
89,24.7253810060998
90,24.319274593540823
91,25.42476306565912
2,1, 5, 3, 0,12, 0.00,10.00,Friday
86,27.114542558187986
87,26.528791653306017
88,28.05679201870914
89,24.76450271505575
90,24.359564977979575
91,25.85462312402182
2,1, 5, 3, 0,12,10.00,20.00,Friday
86,27.168149379651088
87,26.595751393716318
88,28.183561357291646
89,24.808520163931143
90,24.404812105176036
91,25.768558707760577
2,1, 5, 3, 0,12,20.00,30.00,Friday
86,27.226589450026954
87,26.66346826118919
88,28.337126551461009
89,24.85650707496458
90,24.453879086267404
91,26.994317872882694
2,1, 5, 3, 0,12,30.00,40.00,Friday
86,27.271624335806928
87,26.72073674039997
88,28.60945648700674
89,24.900276754491605
90,24.498315236135015
91,26.986820787983154
2,1, 5, 3, 0,12,40.00,50.00,Friday
86,27.371929014481059
87,26.839207729667828
88,28.914679290984944
89,24.960756610444187
90,24.55876692620192
91,27.32383937129594
2,1, 5, 3, 0,12,50.00,60.00,Friday
86,27.46806656213437
87,26.949830984732225
88,29.1887569311172
89,25.01800304418743
90,24.620190552927317
91,27.199538228950293
2,1, 5, 3, 0,13, 0.00,10.00,Friday
86,27.530128533717595
87,27.019259337674744
88,29.407627638673469
89,25.07521530913343
90,24.68269740492669
91,28.32833991503212
2,1, 5, 3, 0,13,10.00,20.00,Friday
86,27.602815197690764
87,27.107080565756755
88,29.65872822555779
89,25.139763387069473
90,24.752148183529859
91,27.49409424446184
2,1, 5, 3, 0,13,20.00,30.00,Friday
86,27.618734290262375
87,27.13082501384941
88,29.558731909724658
89,25.19942863501827
90,24.821743042732704
91,26.955463398370303
2,1, 5, 3, 0,13,30.00,40.00,Friday
86,27.653200869411543
87,27.173317109721358
88,29.556364717093389
89,25.271113983143278
90,24.9009984306475
91,28.245221718270576
2,1, 5, 3, 0,13,40.00,50.00,Friday
86,27.699780339734774
87,27.231586198231253
88,29.58101606521675
89,25.347241838799527
90,24.98485259752997
91,27.4075711280238
2,1, 5, 3, 0,13,50.00,60.00,Friday
86,27.72505101832671
87,27.268662508661607
88,29.672499331901098
89,25.427393217807685
90,25.0734608355707
91,28.817260206401945
2,1, 5, 3, 0,14, 0.00,10.00,Friday
86,27.774636992892455
87,27.33347139847053
88,29.893806236104994
89,25.51470803765356
90,25.17009979265575
91,28.838000415157244
2,1, 5, 3, 0,14,10.00,20.00,Friday
86,27.872598198894058
87,27.446435204969938
88,30.077964353746517
89,25.603807589922228
90,25.269234199706849
91,29.068313160828298
2,1, 5, 3, 0,14,20.00,30.00,Friday
86,27.93128784809271
87,27.51655628596918
88,30.313274750864438
89,25.68046332167404
90,25.356416801037349
91,28.165464271980157
2,1, 5, 3, 0,14,30.00,40.00,Friday
86,27.975230589897217
87,27.57340999166889
88,30.249118851225526
89,25.757968892986527
90,25.445774008085608
91,28.82813382199393
2,1, 5, 3, 0,14,40.00,50.00,Friday
86,28.09076564901163
87,27.711501046852797
88,30.49399260306057
89,25.84960938554423
90,25.55308215711397
91,28.64771797800946
2,1, 5, 3, 0,14,50.00,60.00,Friday
86,28.18482751107108
87,27.82605778255124
88,30.554862916027056
89,25.940035366507077
90,25.66202833619046
91,30.07901308770159
2,1, 5, 3, 0,15, 0.00,10.00,Friday
86,28.14540809943851
87,27.807430538788606
88,30.487992441227143
89,26.025317584410965
90,25.769078191925865
91,29.12112045793525
2,1, 5, 3, 0,15,10.00,20.00,Friday
86,28.186405538003926
87,27.87143864500866
88,30.60727788077126
89,26.113565089521477
90,25.884013578624427
91,29.659655801619608
2,1, 5, 3, 0,15,20.00,30.00,Friday
86,28.283468585003545
87,28.001538974273787
88,30.9688929517578
89,26.214427209355894
90,26.012019828429435
91,28.759673166779259
2,1, 5, 3, 0,15,30.00,40.00,Friday
86,28.42241773557101
87,28.176780494799777
88,31.840693139819476
89,26.317578013086693
90,26.134994097599355
91,31.840900045786886
2,1, 5, 3, 0,15,40.00,50.00,Friday
86,28.472389581481595
87,28.25604545264491
88,31.655711651691438
89,26.4168297290714
90,26.25263111844307
91,30.54524441685473
2,1, 5, 3, 0,15,50.00,60.00,Friday
86,28.52019777408801
87,28.336847359431269
88,31.42914710371707
89,26.51009173225026
90,26.364329973978998
91,30.174871966013904
2,1, 5, 3, 0,16, 0.00,10.00,Friday
86,28.675280566499987
87,28.55765775015123
88,31.84459230874061
89,26.643437655290929
90,26.521818037488303
91,30.954565105445739
2,1, 5, 3, 0,16,10.00,20.00,Friday
86,28.78448547036296
87,28.715990835669638
88,32.26312398827733
89,26.742549550442143
90,26.643166146727994
91,31.37679182315977
2,1, 5, 3, 0,16,20.00,30.00,Friday
86,28.771456331789275
87,28.733186584058417
88,31.71501921208948
89,26.824480953623035
90,26.735223431995267
91,30.575267341467769
2,1, 5, 3, 0,16,30.00,40.00,Friday
86,28.785736547685329
87,28.797900335008433
88,31.574793588587384
89,26.93580778371762
90,26.872014624332235
91,30.37458487437876
2,1, 5, 3, 0,16,40.00,50.00,Friday
86,28.819302373229463
87,28.873071947308966
88,31.794965286910384
89,27.044001472164085
90,27.00620919552165
91,31.0251609335927
2,1, 5, 3, 0,16,50.00,60.00,Friday
86,28.815862051219555
87,28.92241470957052
88,31.816736967375986
89,27.154178231726559
90,27.1401790526489
91,30.826832741512637
2,1, 5, 3, 0,17, 0.00,10.00,Friday
86,28.817812598125259
87,28.96590033731607
88,32.07751997764206
89,27.259034812206264
90,27.26806853908378
91,31.865249171168185
2,1, 5, 3, 0,17,10.00,20.00,Friday
86,28.773212767694355
87,28.966448885492836
88,31.05015967327576
89,27.35054678022173
90,27.377898621360055
91,30.59643830736465
2,1, 5, 3, 0,17,20.00,30.00,Friday
86,28.69823553273869
87,28.96775695221923
88,29.976264368420968
89,27.46311383710866
90,27.510776323490214
91,29.322447470853427
2,1, 5, 3, 0,17,30.00,40.00,Friday
86,28.691090566048147
87,28.988229547731075
88,29.652649372316249
89,27.536881367592064
90,27.595897920145459
91,28.974639072447596
2,1, 5, 3, 0,17,40.00,50.00,Friday
86,28.660394855746554
87,29.01807037489435
88,29.429994008103358
89,27.64121860257385
90,27.714011828095115
91,28.497755704502194
2,1, 5, 3, 0,17,50.00,60.00,Friday
86,28.68040234402079
87,29.075216556258334
88,29.829775809430033
89,27.707689518161105
90,27.78717021207274
91,29.09647460743964
2,1, 5, 3, 0,18, 0.00,10.00,Friday
86,28.687712692206408
87,29.094566399298658
88,29.17135370522461
89,27.75894001353982
90,27.84275245675111
91,28.126087455831116
2,1, 5, 3, 0,18,10.00,20.00,Friday
86,28.67521391089159
87,29.097028485085106
88,29.000603350005947
89,27.80264428780318
90,27.889055746476573
91,27.534726014666569
2,1, 5, 3, 0,18,20.00,30.00,Friday
86,28.670304260490125
87,29.108496376630936
88,28.88993277765672
89,27.844396204825615
90,27.932335914028426
91,27.54605575535926
2,1, 5, 3, 0,18,30.00,40.00,Friday
86,28.694648897624846
87,29.135309691457154
88,29.12878933774403
89,27.868089537848627
90,27.955966403531627
91,27.98694906959334
2,1, 5, 3, 0,18,40.00,50.00,Friday
86,28.734381352916885
87,29.178216605913904
88,29.398022936133974
89,27.89122279440125
90,27.978231979347606
91,28.285614205060698
2,1, 5, 3, 0,18,50.00,60.00,Friday
86,28.76651526482012
87,29.205784176648014
88,29.573717762211478
89,27.90103781661378
90,27.986394185223067
91,28.454539915594073
2,1, 5, 3, 0,19, 0.00,10.00,Friday
86,28.77890890017102
87,29.208122132544824
88,29.403110620262536
89,27.90373904431618
90,27.98688923377512
91,28.308956397787477
2,1, 5, 3, 0,19,10.00,20.00,Friday
86,28.784089328205888
87,29.202312430718334
88,29.396481933661876
89,27.905242390868975
90,27.98602026706215
91,28.491814510098995
2,1, 5, 3, 0,19,20.00,30.00,Friday
86,28.77829264455306
87,29.184890240003808
88,29.564182725565315
89,27.906678280240535
90,27.985053860450774
91,28.5719134653659
2,1, 5, 3, 0,19,30.00,40.00,Friday
86,28.764269471967329
87,29.15947050561607
88,29.489610002349076
89,27.907810624424955
90,27.983763936741707
91,28.357477419561439
2,1, 5, 3, 0,19,40.00,50.00,Friday
86,28.74635508960098
87,29.13063419263703
88,29.50365126172921
89,27.90874295252765
90,27.982216118601298
91,28.345108619372398
2,1, 5, 3, 0,19,50.00,60.00,Friday
86,28.72750818119398
87,29.099764633163486
88,29.340474166695427
89,27.909455771981738
90,27.980342983510025
91,28.22437401781408
2,1, 5, 3, 0,20, 0.00,10.00,Friday
86,28.71134632523106
87,29.071326791424537
88,29.26630510037155
89,27.90956830025261
90,27.977729296086968
91,28.168674092960939
2,1, 5, 3, 0,20,10.00,20.00,Friday
86,28.693915753008807
87,29.041931645314098
88,29.310400328475685
89,27.90863067687177
90,27.973889783321476
91,28.18265890359897
2,1, 5, 3, 0,20,20.00,30.00,Friday
86,28.66955431734408
87,29.005431363056073
88,29.166500216059175
89,27.90636921789135
90,27.96852564176037
91,27.984523894641116
2,1, 5, 3, 0,20,30.00,40.00,Friday
86,28.647452417345684
87,28.971121335985818
88,29.06719324441455
89,27.902599069898235
90,27.96146516686791
91,28.01736598601752
2,1, 5, 3, 0,20,40.00,50.00,Friday
86,28.633253926184226
87,28.94867871758109
88,28.78323070171615
89,27.897843904924465
90,27.954058403884124
91,27.5717076832009
2,1, 5, 3, 0,20,50.00,60.00,Friday
86,28.597961623595155
87,28.895224781629517
88,28.367416338744734
89,27.88955905809354
90,27.941661508348223
91,27.278121844701425
2,1, 5, 3, 0,21, 0.00,10.00,Friday
86,28.5640400467223
87,28.84423071623749
88,27.990259002383767
89,27.88012818134905
90,27.929428028399135
91,26.99454614100958
2,1, 5, 3, 0,21,10.00,20.00,Friday
86,28.550936219768855
87,28.81343876486741
88,28.105530441443816
89,27.868227344598006
90,27.91281272612456
91,27.275203607614047
2,1, 5, 3, 0,21,20.00,30.00,Friday
86,28.54802362967181
87,28.79945316004915
88,28.641517145036624
89,27.857083001006055
90,27.8908576368342
91,27.444926364367136
2,1, 5, 3, 0,21,30.00,40.00,Friday
86,28.532780932689815
87,28.758426756241485
88,29.068260492725515
89,27.832815128331306
90,27.85853903447053
91,27.43071286105916
2,1, 5, 3, 0,21,40.00,50.00,Friday
86,28.52140268709651
87,28.724697571168727
88,28.910253877920434
89,27.808333284093338
90,27.82850405724337
91,27.85027301695449
2,1, 5, 3, 0,21,50.00,60.00,Friday
86,28.501841777679993
87,28.684306448999885
88,28.604574505247748
89,27.782042428484723
90,27.794907496814547
91,27.84959181073619
2,1, 5, 3, 0,22, 0.00,10.00,Friday
86,28.483316441679184
87,28.645750010980146
88,28.356097034247108
89,27.754192235261006
90,27.75991438430883
91,27.26966704247298
2,1, 5, 3, 0,22,10.00,20.00,Friday
86,28.462791751768778
87,28.60620675209942
88,28.080102653247029
89,27.72500036772236
90,27.723693685930689
91,26.984109694183883
2,1, 5, 3, 0,22,20.00,30.00,Friday
86,28.43238863211937
87,28.564996213362155
88,27.764314039688086
89,27.699191396471865
90,27.691468321162398
91,26.692831712016138
2,1, 5, 3, 0,22,30.00,40.00,Friday
86,28.392256773153464
87,28.50038252814569
88,27.821504602893329
89,27.65958737999557
90,27.64372802831884
91,27.45930316057614
2,1, 5, 3, 0,22,40.00,50.00,Friday
86,28.37155933016378
87,28.45828982064401
88,27.952538904893787
89,27.627397498440339
90,27.60404303797871
91,27.53736228698142
2,1, 5, 3, 0,22,50.00,60.00,Friday
86,28.370787434667244
87,28.447340074533029
88,28.320110632107097
89,27.600549478658054
90,27.571958499867518
91,26.74233941847178
2,1, 5, 3, 0,23, 0.00,10.00,Friday
86,28.350572477805238
87,28.415283555886619
88,28.095437513118836
89,27.572880103754174
90,27.539505666997539
91,27.156187800208536
2,1, 5, 3, 0,23,10.00,20.00,Friday
86,28.3331979736149
87,28.3735321010871
88,28.007818947386249
89,27.532435457898296
90,27.492588429136718
91,27.690781046920067
2,1, 5, 3, 0,23,20.00,30.00,Friday
86,28.3265323164333
87,28.347386252697356
88,28.147439206507593
89,27.501054658943447
90,27.45640184614379
91,27.22415772121392
2,1, 5, 3, 0,23,30.00,40.00,Friday
86,28.29247101682912
87,28.297114673786255
88,27.71439717882478
89,27.468551429275814
90,27.419144668901646
91,26.552269956315919
2,1, 5, 3, 0,23,40.00,50.00,Friday
86,28.25809374564716
87,28.247140717816384
88,27.52504350092136
89,27.43609108234098
90,27.38172068040327
91,26.76691672038909
2,1, 5, 3, 0,23,50.00,60.00,Friday
86,28.258774724333095
87,28.23808615614478
88,27.715574404770267
89,27.40704889448294
90,27.348014080772459
91,27.200782260397376
2,1, 5, 3, 0,24, 0.00,10.00,Friday
86,28.246972241523016
87,28.20446814982356
88,27.892194676014648
89,27.36974355936669
90,27.305247828276515
91,27.008540234916099
2,1, 5, 3, 0,24,10.00,20.00,Friday
86,28.231261323015997
87,28.16897857156332
88,27.797375906696375
89,27.336631727309116
90,27.26669492179123
91,27.020452226589435
2,1, 5, 3, 0,24,20.00,30.00,Friday
86,28.221228242459789
87,28.15157110180913
88,27.526119059142958
89,27.309110828421756
90,27.23397595632649
91,26.51833248472836
2,1, 5, 3, 0,24,30.00,40.00,Friday
86,28.206004766012485
87,28.12312132737781
88,27.292854669566439
89,27.275966650358865
90,27.19519185579121
91,26.340481666918799
2,1, 5, 3, 0,24,40.00,50.00,Friday
86,28.200496699064947
87,28.106721749310077
88,27.80830316929802
89,27.24558381468617
90,27.15926561962525
91,26.719618028501217
2,1, 5, 3, 0,24,50.00,60.00,Friday
86,28.186515088929739
87,28.0776161935099
88,27.8302277852331
89,27.21351448530918
90,27.121621661439734
91,26.80685631805487
2,2, 5, 4, 0, 1, 0.00,10.00,Saturday
86,28.165450484783528
87,28.048272397454278
88,27.444290893012047
89,27.185091759568154
90,27.08769213518088
91,26.434228604104797
2,2, 5, 4, 0, 1,10.00,20.00,Saturday
86,28.118065314762274
87,27.982524686670386
88,27.03655796419533
89,27.15213566391384
90,27.048881109715667
91,26.09627811365892
2,2, 5, 4, 0, 1,20.00,30.00,Saturday
86,28.07548361790714
87,27.923750212857614
88,26.797241801945167
89,27.123497005369427
90,27.014500683844518
91,25.8980824331863
2,2, 5, 4, 0, 1,30.00,40.00,Saturday
86,28.039762154309714
87,27.875144051914235
88,26.80534721919275
89,27.095140948115497
90,26.98041723122791
91,25.9130866085333
2,2, 5, 4, 0, 1,40.00,50.00,Saturday
86,28.01609587617558
87,27.840383887383678
88,26.877307668122254
89,27.065923203687047
90,26.945969248301457
91,26.05354350634764
2,2, 5, 4, 0, 1,50.00,60.00,Saturday
86,27.998471442657129
87,27.812553923183839
88,26.926286094065796
89,27.035689659022507
90,26.910750674362764
91,26.191427502794626
2,2, 5, 4, 0, 2, 0.00,10.00,Saturday
86,27.991168151976969
87,27.800941517718745
88,27.094823374342878
89,27.00873665988145
90,26.879108211841463
91,26.701346918740265
2,2, 5, 4, 0, 2,10.00,20.00,Saturday
86,27.969411973942539
87,27.76673458172514
88,27.422262856870768
89,26.973527507488627
90,26.838657651878216
91,26.22148698378946
2,2, 5, 4, 0, 2,20.00,30.00,Saturday
86,27.94842338482641
87,27.734805349332544
88,27.59415089900004
89,26.941933176070813
90,26.801224767680734
91,26.174681949055125
2,2, 5, 4, 0, 2,30.00,40.00,Saturday
86,27.92272817404058
87,27.700972598150466
88,27.441159272482289
89,26.91121740923859
90,26.763993126937103
91,26.10919094295287
2,2, 5, 4, 0, 2,40.00,50.00,Saturday
86,27.89708582840977
87,27.667573947956329
88,27.269223815611789
89,26.88032767969963
90,26.727263006489549
91,26.168316713019789
2,2, 5, 4, 0, 2,50.00,60.00,Saturday
86,27.87207225760364
87,27.633526898830579
88,27.26851559958972
89,26.849578586544128
90,26.69097986689342
91,26.02613577958003
2,2, 5, 4, 0, 3, 0.00,10.00,Saturday
86,27.848992963872108
87,27.606359835668344
88,27.000755611473346
89,26.823401454343203
90,26.65946003723684
91,26.46766682031707
2,2, 5, 4, 0, 3,10.00,20.00,Saturday
86,27.795007597206607
87,27.539994248875929
88,26.689853066137294
89,26.789433004514515
90,26.619742822527706
91,26.243276926782579
2,2, 5, 4, 0, 3,20.00,30.00,Saturday
86,27.742643538980344
87,27.4767278636173
88,26.421521503104576
89,26.759842663580984
90,26.58460914404799
91,25.780586706186388
2,2, 5, 4, 0, 3,30.00,40.00,Saturday
86,27.697890222063128
87,27.42257113738792
88,26.330256466752357
89,26.72857898979229
90,26.54783085772034
91,26.031652446404438
2,2, 5, 4, 0, 3,40.00,50.00,Saturday
86,27.66094372214829
87,27.376742304603579
88,26.327834222775715
89,26.6941199527444
90,26.507841607134716
91,25.95737239014983
2,2, 5, 4, 0, 3,50.00,60.00,Saturday
86,27.629857889077376
87,27.341584964494915
88,26.146572244743529
89,26.663850439998546
90,26.472975354562068
91,25.7306867679965
2,2, 5, 4, 0, 4, 0.00,10.00,Saturday
86,27.55903924129525
87,27.259392136080057
88,25.8140819146994
89,26.62411778595949
90,26.427802105453915
91,25.813212476982934
2,2, 5, 4, 0, 4,10.00,20.00,Saturday
86,27.522300826355953
87,27.217836280388846
88,25.502198571183933
89,26.58928596130743
90,26.389224344790038
91,24.877674198529264
2,2, 5, 4, 0, 4,20.00,30.00,Saturday
86,27.469157702478346
87,27.15558008454465
88,25.35122383449442
89,26.547762024941723
90,26.342797005966938
91,25.162130361211959
2,2, 5, 4, 0, 4,30.00,40.00,Saturday
86,27.436449480994907
87,27.114172484598094
88,25.672688359961187
89,26.502696373669367
90,26.29260835335821
91,24.42058440613723
2,2, 5, 4, 0, 4,40.00,50.00,Saturday
86,27.402400090751465
87,27.073433422648845
88,25.261298950118666
89,26.461509720328644
90,26.247354817463667
91,24.96157449731646
2,2, 5, 4, 0, 4,50.00,60.00,Saturday
86,27.374945724183364
87,27.03661863569981
88,25.356908428274364
89,26.408614347934468
90,26.18913992540319
91,25.41379138488834
2,2, 5, 4, 0, 5, 0.00,10.00,Saturday
86,27.330081031468017
87,26.981603470890904
88,25.43102528695471
89,26.356537218064554
90,26.132190835139608
91,24.198289156875487
2,2, 5, 4, 0, 5,10.00,20.00,Saturday
86,27.284252976805136
87,26.926604439793299
88,25.087455403384614
89,26.301575816565916
90,26.07214711330417
91,24.9787106423705
2,2, 5, 4, 0, 5,20.00,30.00,Saturday
86,27.26030306260767
87,26.892997525959549
88,25.13015969883574
89,26.247473192385553
90,26.013191243176786
91,25.2150088114206
2,2, 5, 4, 0, 5,30.00,40.00,Saturday
86,27.22217976548392
87,26.841065874758696
88,25.070998501290874
89,26.187796621819357
90,25.94825939941067
91,24.97692466253163
2,2, 5, 4, 0, 5,40.00,50.00,Saturday
86,27.164787970594064
87,26.76901603527719
88,24.977023511840007
89,26.125108644777954
90,25.880143376675858
91,24.691685642959656
2,2, 5, 4, 0, 5,50.00,60.00,Saturday
86,27.128335963552105
87,26.726575262092596
88,24.816766714853327
89,26.074209612341276
90,25.82487954454512
91,25.020306279375327
2,2, 5, 4, 0, 6, 0.00,10.00,Saturday
86,27.06394353955883
87,26.647244776829436
88,24.611367001185195
89,26.011088065696826
90,25.75645594417483
91,24.368311551215507
2,2, 5, 4, 0, 6,10.00,20.00,Saturday