Program Version,EnergyPlus, Version 9.5.0-de239b2e5f, YMD=2021.12.08 21:56
1,5,Environment Title[],Latitude[deg],Longitude[deg],Time Zone[],Elevation[m]
2,8,Day of Simulation[],Month[],Day of Month[],DST Indicator[1=yes 0=no],Hour[],StartMinute[],EndMinute[],DayType
3,5,Cumulative Day of Simulation[],Month[],Day of Month[],DST Indicator[1=yes 0=no],DayType  ! When Daily Report Variables Requested
4,2,Cumulative Days of Simulation[],Month[]  ! When Monthly Report Variables Requested
5,1,Cumulative Days of Simulation[] ! When Run Period Report Variables Requested
6,1,Calendar Year of Simulation[] ! When Annual Report Variables Requested
7,1,Environment,Site Outdoor Air Drybulb Temperature [C] !TimeStep
87,1,THERMAL ZONE: CUBI_1,Zone Mean Air Temperature [C] !TimeStep
88,1,THERMAL ZONE: CUBI_2,Zone Mean Air Temperature [C] !TimeStep
89,1,THERMAL ZONE: CUBI_JORGE,Zone Mean Air Temperature [C] !TimeStep
90,1,THERMAL ZONE: TECHO_1,Zone Mean Air Temperature [C] !TimeStep
91,1,THERMAL ZONE: TECHO_2,Zone Mean Air Temperature [C] !TimeStep
92,1,THERMAL ZONE: TECHO_JORGE,Zone Mean Air Temperature [C] !TimeStep
End of Data Dictionary
1,RUN PERIOD 1,  18.85, -99.14,  -6.00,1280.00
2,1, 5, 3, 0, 1, 0.00,10.00,Friday
7,23.0
87,28.103059610208566
88,27.941673005493475
89,28.30185813953615
90,27.17827125586527
91,27.072255530178127
92,25.842426361262555
2,1, 5, 3, 0, 1,10.00,20.00,Friday
7,23.0
87,28.009870362946907
88,27.828795049935058
89,28.112845563776398
90,27.14875172846749
91,27.037142094789635
92,25.972532058520085
2,1, 5, 3, 0, 1,20.00,30.00,Friday
7,23.0
87,28.003568821306975
88,27.81005810799283
89,28.124374837207129
90,27.1189545949533
91,27.00144211668063
92,25.555958678914064
2,1, 5, 3, 0, 1,30.00,40.00,Friday
7,22.8
87,27.973613088434339
88,27.763004740618525
89,28.07136759721636
90,27.083256053945456
91,26.959455216896488
92,25.763166854245953
2,1, 5, 3, 0, 1,40.00,50.00,Friday
7,22.7
87,27.939323078974888
88,27.717977419163085
89,28.003109313110394
90,27.04711640590746
91,26.917006749387939
92,25.418665663664414
2,1, 5, 3, 0, 1,50.00,60.00,Friday
7,22.6
87,27.89244848999914
88,27.654230973131754
89,27.90494848118555
90,27.00491552986141
91,26.86879402163081
92,25.62112563955946
2,1, 5, 3, 0, 2, 0.00,10.00,Friday
7,22.5
87,27.840339293299228
88,27.58301685701118
89,27.785719865446568
90,26.958284312309897
91,26.815088601000249
92,25.43170616558273
2,1, 5, 3, 0, 2,10.00,20.00,Friday
7,22.4
87,27.837276278118158
88,27.57201043427382
89,27.796058839003455
90,26.92121750915389
91,26.769803452109167
92,24.93566058586707
2,1, 5, 3, 0, 2,20.00,30.00,Friday
7,22.3
87,27.811355659106984
88,27.534741852961206
89,27.762002955686314
90,26.873714237724998
91,26.715078992453699
92,25.039013923642803
2,1, 5, 3, 0, 2,30.00,40.00,Friday
7,22.4
87,27.776148271818557
88,27.485261936906878
89,27.702184482065417
90,26.820042638634946
91,26.654571655378285
92,24.95394257576241
2,1, 5, 3, 0, 2,40.00,50.00,Friday
7,22.5
87,27.75538060655452
88,27.4599724432494
89,27.66463835053355
90,26.778292254946373
91,26.606567562582
92,25.236112585496799
2,1, 5, 3, 0, 2,50.00,60.00,Friday
7,22.3
87,27.71765594139343
88,27.41451009837264
89,27.597450148291896
90,26.728272530662623
91,26.549984008360675
92,24.94644813055575
2,1, 5, 3, 0, 3, 0.00,10.00,Friday
7,22.1
87,27.668347136808273
88,27.352849999782707
89,27.511027406938689
90,26.673503963483478
91,26.489414725053654
92,24.770260167522463
2,1, 5, 3, 0, 3,10.00,20.00,Friday
7,22.0
87,27.622186921925523
88,27.293199147956626
89,27.43164248881118
90,26.623930920741747
91,26.43410273804916
92,24.693261251748884
2,1, 5, 3, 0, 3,20.00,30.00,Friday
7,22.0
87,27.579661867510138
88,27.23898863294341
89,27.35018037165802
90,26.575881628294835
91,26.38007012404641
92,24.990796156856264
2,1, 5, 3, 0, 3,30.00,40.00,Friday
7,21.9
87,27.565804657246049
88,27.219880425823648
89,27.33169072036881
90,26.532206195042656
91,26.331092092089976
92,24.47850836633078
2,1, 5, 3, 0, 3,40.00,50.00,Friday
7,21.9
87,27.527698161851484
88,27.173498243397945
89,27.25060681497417
90,26.48267178582175
91,26.2756456778923
92,25.163315562993014
2,1, 5, 3, 0, 3,50.00,60.00,Friday
7,21.7
87,27.495033157651546
88,27.131357012289678
89,27.204300757060918
90,26.432750214102059
91,26.219785149259054
92,24.465956910834227
2,1, 5, 3, 0, 4, 0.00,10.00,Friday
7,21.7
87,27.433773385530239
88,27.05320496008481
89,27.0884592384769
90,26.377516995568937
91,26.158111783564644
92,24.97498132609314
2,1, 5, 3, 0, 4,10.00,20.00,Friday
7,21.8
87,27.41300806016498
88,27.02631686232315
89,27.043348748030888
90,26.331206318111066
91,26.106566062927329
92,25.351120736722437
2,1, 5, 3, 0, 4,20.00,30.00,Friday
7,21.5
87,27.371519027139795
88,26.973716057057908
89,26.97501349388255
90,26.27641985578799
91,26.04576383451456
92,24.579634793147549
2,1, 5, 3, 0, 4,30.00,40.00,Friday
7,21.4
87,27.33121258196219
88,26.923487498302355
89,26.89565783152949
90,26.223820221907539
91,25.987604602383646
92,25.147444538242639
2,1, 5, 3, 0, 4,40.00,50.00,Friday
7,21.1
87,27.25940819842242
88,26.83307361236045
89,26.76961454837078
90,26.165179616539004
91,25.92297928635309
92,24.459571573989494
2,1, 5, 3, 0, 4,50.00,60.00,Friday
7,21.2
87,27.234764351558334
88,26.801998618372218
89,26.720745242357567
90,26.115236256342877
91,25.86813020066633
92,25.075929725547039
2,1, 5, 3, 0, 5, 0.00,10.00,Friday
7,21.0
87,27.192589725758944
88,26.748655952740927
89,26.653226027610076
90,26.05712238673609
91,25.804482925079986
92,24.4953207341368
2,1, 5, 3, 0, 5,10.00,20.00,Friday
7,20.8
87,27.130526751553995
88,26.671119814535215
89,26.541259739167005
90,25.995948036024286
91,25.737672928326327
92,24.74782277128003
2,1, 5, 3, 0, 5,20.00,30.00,Friday
7,20.9
87,27.10732259024041
88,26.637564169751305
89,26.529944168022206
90,25.93636604976688
91,25.67280218299799
92,23.971882831511694
2,1, 5, 3, 0, 5,30.00,40.00,Friday
7,20.8
87,27.0658266782821
88,26.58266685619662
89,26.477702710518739
90,25.87731754104303
91,25.608671393434546
92,24.20667750980694
2,1, 5, 3, 0, 5,40.00,50.00,Friday
7,21.1
87,27.0253453811686
88,26.52633485512651
89,26.432670287455307
90,25.81185358670087
91,25.537654309866697
92,23.96040660486064
2,1, 5, 3, 0, 5,50.00,60.00,Friday
7,20.8
87,27.00172644616893
88,26.494125253736124
89,26.418985929579948
90,25.75675150531609
91,25.47791715576271
92,23.437458593279837
2,1, 5, 3, 0, 6, 0.00,10.00,Friday
7,20.8
87,26.962607684119989
88,26.44161136787359
89,26.379194046847024
90,25.694965739693634
91,25.41092824841813
92,23.728632396952315
2,1, 5, 3, 0, 6,10.00,20.00,Friday
7,20.1
87,26.903522587211893
88,26.373014465374597
89,26.267232155292647
90,25.634685293418209
91,25.345502096541467
92,23.326915004370265
2,1, 5, 3, 0, 6,20.00,30.00,Friday
7,20.1
87,26.853429179748617
88,26.312468386971294
89,26.172025065631354
90,25.57761285854201
91,25.28348628830907
92,23.894593954115014
2,1, 5, 3, 0, 6,30.00,40.00,Friday
7,19.5
87,26.76952203377121
88,26.214616635156536
89,26.005463563638999
90,25.51444188495864
91,25.2148097604593
92,23.708392107872215
2,1, 5, 3, 0, 6,40.00,50.00,Friday
7,19.6
87,26.73116704301114
88,26.165954378271377
89,25.9559181497324
90,25.45276963912094
91,25.147835548049977
92,23.179068904666026
2,1, 5, 3, 0, 6,50.00,60.00,Friday
7,19.5
87,26.682465195762825
88,26.1034579082467
89,25.897154037198456
90,25.392311263332858
91,25.082297862732408
92,22.896354690301164
2,1, 5, 3, 0, 7, 0.00,10.00,Friday
7,19.6
87,26.647588427047098
88,26.058870072993409
89,25.844831846559793
90,25.329862428941053
91,25.014758714782475
92,23.256973890127648
2,1, 5, 3, 0, 7,10.00,20.00,Friday
7,19.9
87,26.607865188956575
88,26.005323649595455
89,25.79438408004141
90,25.264297054056283
91,24.943903535822679
92,23.340727317102617
2,1, 5, 3, 0, 7,20.00,30.00,Friday
7,19.6
87,26.58133903969549
88,25.96573103523148
89,25.78624769537193
90,25.19652856321853
91,24.870742671052079
92,22.408109814378073
2,1, 5, 3, 0, 7,30.00,40.00,Friday
7,19.4
87,26.532685117776276
88,25.90309899785506
89,25.74189852162492
90,25.13253343887966
91,24.80164360347676
92,22.379846030008303
2,1, 5, 3, 0, 7,40.00,50.00,Friday
7,19.5
87,26.484582219996097
88,25.841054059813407
89,25.701578843132468
90,25.064465234802254
91,24.72806831904438
92,22.52698545246673
2,1, 5, 3, 0, 7,50.00,60.00,Friday
7,19.8
87,26.47276041675091
88,25.823260942627479
89,25.69902032689329
90,25.006989017829875
91,24.66584338014895
92,22.84926762182773
2,1, 5, 3, 0, 8, 0.00,10.00,Friday
7,20.1
87,26.43877367634665
88,25.77625206250962
89,25.668742514091556
90,24.940921460564007
91,24.594196118601496
92,23.805458299517605
2,1, 5, 3, 0, 8,10.00,20.00,Friday
7,20.1
87,26.415091675021807
88,25.742920112911486
89,25.651190795180008
90,24.88089174167133
91,24.52908145914139
92,23.681975105001848
2,1, 5, 3, 0, 8,20.00,30.00,Friday
7,20.7
87,26.421534028709045
88,25.738422596611838
89,25.722745825131253
90,24.821971878038054
91,24.465018132380519
92,23.39444135331096
2,1, 5, 3, 0, 8,30.00,40.00,Friday
7,21.2
87,26.45065329500517
88,25.75772019862093
89,25.83512752882752
90,24.767878475362907
91,24.40577268866621
92,23.09068318662393
2,1, 5, 3, 0, 8,40.00,50.00,Friday
7,22.0
87,26.501740163600503
88,25.789486953036488
89,26.016325211839747
90,24.711449416446727
91,24.34311046044916
92,23.48326329331094
2,1, 5, 3, 0, 8,50.00,60.00,Friday
7,22.9
87,26.539429733597083
88,25.813476662205873
89,26.139397829894226
90,24.661900067224349
91,24.286909513311234
92,23.77501199511869
2,1, 5, 3, 0, 9, 0.00,10.00,Friday
7,24.3
87,26.571382560755084
88,25.84048029553236
89,26.211594616511776
90,24.62299967015365
91,24.24114036816595
92,24.218565526379999
2,1, 5, 3, 0, 9,10.00,20.00,Friday
7,24.3
87,26.60225830853731
88,25.861993746272064
89,26.298356957648953
90,24.58604015465551
91,24.196489816777416
92,24.202401452740415
2,1, 5, 3, 0, 9,20.00,30.00,Friday
7,24.4
87,26.623777787693237
88,25.873554798810799
89,26.375652995624919
90,24.553568439194799
91,24.155919404859764
92,24.1892949556674
2,1, 5, 3, 0, 9,30.00,40.00,Friday
7,24.7
87,26.645348186776674
88,25.88638975479887
89,26.449277697437198
90,24.532095858648956
91,24.12751187655109
92,24.23494030805111
2,1, 5, 3, 0, 9,40.00,50.00,Friday
7,25.1
87,26.67619835087392
88,25.91099139936197
89,26.532371435336104
90,24.517888898274987
91,24.10744281983708
92,24.360903299323728
2,1, 5, 3, 0, 9,50.00,60.00,Friday
7,25.4
87,26.71058816885155
88,25.94201762824892
89,26.617142646713395
90,24.508745877710195
91,24.093369472970623
92,24.269605022141965
2,1, 5, 3, 0,10, 0.00,10.00,Friday
7,25.9
87,26.73739543070218
88,25.965350049146637
89,26.843466203903004
90,24.50592230021231
91,24.087089104433937
92,24.665015287615327
2,1, 5, 3, 0,10,10.00,20.00,Friday
7,26.2
87,26.77853718512742
88,26.003604060800016
89,27.084868234443236
90,24.506748857007588
91,24.084738339328039
92,24.84900622324311
2,1, 5, 3, 0,10,20.00,30.00,Friday
7,26.3
87,26.821592097370215
88,26.046694146930933
89,27.251352138292284
90,24.51262596353415
91,24.08800930834286
92,24.97775017557358
2,1, 5, 3, 0,10,30.00,40.00,Friday
7,26.4
87,26.856114639586236
88,26.088387742615724
89,27.33698573962487
90,24.523943568946359
91,24.09776191524775
92,24.932089352478447
2,1, 5, 3, 0,10,40.00,50.00,Friday
7,26.4
87,26.884647960817813
88,26.12856038998183
89,27.39584625391559
90,24.539681654620286
91,24.11252511128341
92,25.18455214942336
2,1, 5, 3, 0,10,50.00,60.00,Friday
7,25.9
87,26.906409846429999
88,26.161722271498307
89,27.45084279194683
90,24.559684931655153
91,24.132027983877977
92,24.88971972645025
2,1, 5, 3, 0,11, 0.00,10.00,Friday
7,26.2
87,26.935789827094408
88,26.201571734640106
89,27.53145589006186
90,24.58401288739726
91,24.15646053831728
92,24.835639695628168
2,1, 5, 3, 0,11,10.00,20.00,Friday
7,26.9
87,26.981725895763768
88,26.263608484546528
89,27.65249502034263
90,24.611783177072384
91,24.184842319034943
92,24.91768618964433
2,1, 5, 3, 0,11,20.00,30.00,Friday
7,27.2
87,27.015199746741169
88,26.306823303581184
89,27.73656543223185
90,24.63919235428663
91,24.21308251919441
92,25.153039198167336
2,1, 5, 3, 0,11,30.00,40.00,Friday
7,27.3
87,27.055401932671626
88,26.35575483341343
89,27.845559646780666
90,24.670956861234477
91,24.2458872610024
92,25.749710767617999
2,1, 5, 3, 0,11,40.00,50.00,Friday
7,27.4
87,27.090991566703424
88,26.40285858047551
89,27.939166687330123
90,24.704813162956655
91,24.280910217123993
92,25.303130443632349
2,1, 5, 3, 0,11,50.00,60.00,Friday
7,27.6
87,27.146499234894529
88,26.475553555453226
89,28.086991824848576
90,24.74572733392685
91,24.323162590133017
92,25.501409141790015
2,1, 5, 3, 0,12, 0.00,10.00,Friday
7,28.5
87,27.20252340561575
88,26.54400290131091
89,28.21856575554193
90,24.784983876831239
91,24.363475620231939
92,25.988694400995088
2,1, 5, 3, 0,12,10.00,20.00,Friday
7,28.0
87,27.25561737737498
88,26.610730124736297
89,28.36143798185238
90,24.829104510109724
91,24.408737135169667
92,25.691679675365959
2,1, 5, 3, 0,12,20.00,30.00,Friday
7,29.1
87,27.313920754513576
88,26.678362532428538
89,28.503340136975518
90,24.877238672841405
91,24.457836883949136
92,26.996987881873026
2,1, 5, 3, 0,12,30.00,40.00,Friday
7,29.2
87,27.382659841272259
88,26.7634814370135
89,28.667011101581865
90,24.926915281930638
91,24.508287323062747
92,27.18347283642418
2,1, 5, 3, 0,12,40.00,50.00,Friday
7,29.9
87,27.463330782256589
88,26.859486120871919
89,28.85375596535957
90,24.982456543263568
91,24.56447135224992
92,27.34566366034375
2,1, 5, 3, 0,12,50.00,60.00,Friday
7,30.5
87,27.54819748940788
88,26.957953804878977
89,29.045275843558338
90,25.039703494269668
91,24.624997587316515
92,27.26902613267107
2,1, 5, 3, 0,13, 0.00,10.00,Friday
7,31.4
87,27.613070894502309
88,27.031113387597665
89,29.188528940749128
90,25.096618662285445
91,24.686235690848855
92,28.35453605371913
2,1, 5, 3, 0,13,10.00,20.00,Friday
7,30.8
87,27.686487081108309
88,27.12091587700207
89,29.354309421441749
90,25.160819067667295
91,24.75578635186109
92,27.525261743720088
2,1, 5, 3, 0,13,20.00,30.00,Friday
7,30.6
87,27.702541027411649
88,27.144663022039948
89,29.390617523387239
90,25.22135038139681
91,24.825301606791756
92,26.978833308097799
2,1, 5, 3, 0,13,30.00,40.00,Friday
7,30.8
87,27.737535106743186
88,27.187500630950276
89,29.476017995483706
90,25.291069587521436
91,24.904556477595436
92,28.28560247511979
2,1, 5, 3, 0,13,40.00,50.00,Friday
7,30.9
87,27.783990899064177
88,27.245935323957029
89,29.562291279960197
90,25.367834354599496
91,24.988335763166416
92,27.446224954358465
2,1, 5, 3, 0,13,50.00,60.00,Friday
7,31.5
87,27.8091720217626
88,27.283153393277588
89,29.63119307170206
90,25.44765951617331
91,25.076994981532708
92,28.85466873663693
2,1, 5, 3, 0,14, 0.00,10.00,Friday
7,31.8
87,27.858761240050368
88,27.34818317568481
89,29.744309213968795
90,25.534817329118075
91,25.17362573343019
92,28.86756821400314
2,1, 5, 3, 0,14,10.00,20.00,Friday
7,32.0
87,27.9571622833778
88,27.461335718704729
89,29.927993102987146
90,25.623841782479283
91,25.2727187411965
92,29.09850591585058
2,1, 5, 3, 0,14,20.00,30.00,Friday
7,31.8
87,28.015073116116939
88,27.531119762360196
89,30.040104731604488
90,25.70042524749849
91,25.3598974715021
92,28.20100279663446
2,1, 5, 3, 0,14,30.00,40.00,Friday
7,31.6
87,28.058446976141846
88,27.58781243306963
89,30.11737668671054
90,25.777846124360829
91,25.449224749817778
92,28.85845753296063
2,1, 5, 3, 0,14,40.00,50.00,Friday
7,32.8
87,28.173046149271007
88,27.725631167744436
89,30.309734642544436
90,25.869252978293394
91,25.556464574901424
92,28.666171616376525
2,1, 5, 3, 0,14,50.00,60.00,Friday
7,33.5
87,28.26661543823325
88,27.84001340423325
89,30.480261044135795
90,25.959581675925454
91,25.665349126516035
92,30.11115802272361
2,1, 5, 3, 0,15, 0.00,10.00,Friday
7,31.8
87,28.226632160181688
88,27.82121914208968
89,30.431458419453489
90,26.044439288289444
91,25.77216395383546
92,29.15105758115404
2,1, 5, 3, 0,15,10.00,20.00,Friday
7,32.4
87,28.268102348074469
88,27.885202045197823
89,30.5048577199888
90,26.132455060039967
91,25.887005669961668
92,29.688566663620276
2,1, 5, 3, 0,15,20.00,30.00,Friday
7,32.8
87,28.365003636610845
88,28.015043242595824
89,30.66353868120481
90,26.23260977879037
91,26.015112837027407
92,28.789263321954203
2,1, 5, 3, 0,15,30.00,40.00,Friday
7,33.7
87,28.502454106785849
88,28.190063898488928
89,30.892149750809673
90,26.33291420604287
91,26.13821695367339
92,31.87353238008869
2,1, 5, 3, 0,15,40.00,50.00,Friday
7,32.9
87,28.55115933301233
88,28.26923524397078
89,30.94805424104168
90,26.43322014772692
91,26.255931748261078
92,30.579207207759525
2,1, 5, 3, 0,15,50.00,60.00,Friday
7,33.3
87,28.598271292141648
88,28.349889904535194
89,31.02206066809256
90,26.526665493101846
91,26.36765768911527
92,30.20123248611477
2,1, 5, 3, 0,16, 0.00,10.00,Friday
7,33.9
87,28.750984609388739
88,28.5696380285464
89,31.24741402448675
90,26.660985693955526
91,26.52528947442883
92,30.998076293833337
2,1, 5, 3, 0,16,10.00,20.00,Friday
7,33.6
87,28.85764716287636
88,28.727999084265976
89,31.385608851459837
90,26.761271548152388
91,26.646797345821925
92,31.405316027739255
2,1, 5, 3, 0,16,20.00,30.00,Friday
7,32.9
87,28.844498718114779
88,28.745710276699936
89,31.344450380040024
90,26.84181890708107
91,26.739042943730945
92,30.61244242461741
2,1, 5, 3, 0,16,30.00,40.00,Friday
7,33.3
87,28.858529920781039
88,28.810815847827177
89,31.347248928390415
90,26.95339624291208
91,26.875653086327433
92,30.397051290151134
2,1, 5, 3, 0,16,40.00,50.00,Friday
7,33.5
87,28.891242859020154
88,28.886106540908295
89,31.374893273123378
90,27.062026103131929
91,27.009819112702937
92,31.051270458034744
2,1, 5, 3, 0,16,50.00,60.00,Friday
7,32.9
87,28.88644820919146
88,28.935741736716435
89,31.322269328954009
90,27.17245393087441
91,27.143811988806957
92,30.852178305946194
2,1, 5, 3, 0,17, 0.00,10.00,Friday
7,32.6
87,28.887281093815767
88,28.979328811514934
89,31.31431389967016
90,27.277295368354939
91,27.271686935213958
92,31.876462084805138
2,1, 5, 3, 0,17,10.00,20.00,Friday
7,30.9
87,28.842139313933587
88,28.97997623216217
89,31.158423890832624
90,27.368806611267904
91,27.38151288438727
92,30.604867128023377
2,1, 5, 3, 0,17,20.00,30.00,Friday
7,29.4
87,28.767428077752546
88,28.981533438061939
89,30.87101467634198
90,27.481583719214215
91,27.514432790572518
92,29.331612259025609
2,1, 5, 3, 0,17,30.00,40.00,Friday
7,29.0
87,28.76034956252868
88,29.001944836270739
89,30.785470070328594
90,27.555230962846239
91,27.599531346648005
92,28.979919737146628
2,1, 5, 3, 0,17,40.00,50.00,Friday
7,28.4
87,28.72940346224467
88,29.03176880272149
89,30.634771963674895
90,27.65974917064245
91,27.717688431547324
92,28.509408907491765
2,1, 5, 3, 0,17,50.00,60.00,Friday
7,29.2
87,28.749241338910676
88,29.08897596952247
89,30.688380533796143
90,27.72620656190371
91,27.79085000136749
92,29.11302767170335
2,1, 5, 3, 0,18, 0.00,10.00,Friday
7,28.0
87,28.755675975442345
88,29.108235423199454
89,30.624263979200405
90,27.777369260860824
91,27.846422311285239
92,28.12287423257798
2,1, 5, 3, 0,18,10.00,20.00,Friday
7,26.8
87,28.742650233629719
88,29.110629847731869
89,30.57885638491411
90,27.82099456550202
91,27.89269341623379
92,27.559084959272249
2,1, 5, 3, 0,18,20.00,30.00,Friday
7,26.8
87,28.737128362199564
88,29.122017482158296
89,30.534770504560755
90,27.86275534577038
91,27.935992176793
92,27.570008482844977
2,1, 5, 3, 0,18,30.00,40.00,Friday
7,27.5
87,28.76116053615919
88,29.148843002120388
89,30.569634762816624
90,27.886405993428519
91,27.959638055022809
92,28.007092563899034
2,1, 5, 3, 0,18,40.00,50.00,Friday
7,28.0
87,28.80015706902988
88,29.191799035818617
89,30.625063148578165
90,27.909557811107317
91,27.98192584259828
92,28.304425445519287
2,1, 5, 3, 0,18,50.00,60.00,Friday
7,28.3
87,28.831601113259759
88,29.219437458260417
89,30.672122190773594
90,27.919335747586506
91,27.990095426874473
92,28.469925553772194
2,1, 5, 3, 0,19, 0.00,10.00,Friday
7,28.1
87,28.843380508412559
88,29.22179190267935
89,30.52143269472588
90,27.921966688714425
91,27.99059221350607
92,28.324821556384629
2,1, 5, 3, 0,19,10.00,20.00,Friday
7,28.4
87,28.84829027893365
88,29.215971324903366
89,30.385413615255673
90,27.923406692589479
91,27.98972745291525
92,28.508216106488378
2,1, 5, 3, 0,19,20.00,30.00,Friday
7,28.3
87,28.84253675258263
88,29.198544891708385
89,30.321805863796123
90,27.9247916466536
91,27.988768115172506
92,28.597864419396797
2,1, 5, 3, 0,19,30.00,40.00,Friday
7,28.1
87,28.828854573905443
88,29.173084484940398
89,30.27490044116279
90,27.92587454301681
91,27.98748591162555
92,28.380641393572906
2,1, 5, 3, 0,19,40.00,50.00,Friday
7,27.9
87,28.81135507708994
88,29.144195199024055
89,30.236780473210648
90,27.926755532049027
91,27.985946010255014
92,28.377508028320745
2,1, 5, 3, 0,19,50.00,60.00,Friday
7,27.8
87,28.792719906429313
88,29.113247824451574
89,30.16131472627453
90,27.927419834680735
91,27.98408211892619
92,28.253700256609613
2,1, 5, 3, 0,20, 0.00,10.00,Friday
7,27.7
87,28.77675160441444
88,29.084736288503124
89,30.086836825712596
90,27.92749074534776
91,27.981480083851037
92,28.198815995785539
2,1, 5, 3, 0,20,10.00,20.00,Friday
7,27.4
87,28.759605929761315
88,29.055273143794545
89,30.027153771391857
90,27.926518994129667
91,27.97765522959382
92,28.224230262819867
2,1, 5, 3, 0,20,20.00,30.00,Friday
7,27.0
87,28.735499226157189
88,29.018662806116465
89,29.950278246502575
90,27.924231047563486
91,27.97230956565659
92,28.029282441380983
2,1, 5, 3, 0,20,30.00,40.00,Friday
7,26.9
87,28.713766799511406
88,28.98422231564425
89,29.882171702336636
90,27.920444800632127
91,27.9652734077401
92,28.07050401590642
2,1, 5, 3, 0,20,40.00,50.00,Friday
7,26.6
87,28.69963485416651
88,28.961704430186843
89,29.82380152200966
90,27.915705135454304
91,27.95790162566461
92,27.60775339624196
2,1, 5, 3, 0,20,50.00,60.00,Friday
7,26.3
87,28.671453946186899
88,28.918918756092006
89,29.720498789477749
90,27.908114738934598
91,27.94677788166798
92,27.32100718024677
2,1, 5, 3, 0,21, 0.00,10.00,Friday
7,26.0
87,28.63315634973188
88,28.861586877654998
89,29.58689376045871
90,27.897871634187124
91,27.933241396512498
92,27.05339689162959
2,1, 5, 3, 0,21,10.00,20.00,Friday
7,26.3
87,28.61537012421275
88,28.82373655557996
89,29.534705641296758
90,27.885737401188505
91,27.91526178431588
92,27.31711102836718
2,1, 5, 3, 0,21,20.00,30.00,Friday
7,26.1
87,28.607305471424426
88,28.795575542786954
89,29.543332083178237
90,27.871108376361229
91,27.890876510526409
92,27.51113893717953
2,1, 5, 3, 0,21,30.00,40.00,Friday
7,26.0
87,28.598183229096283
88,28.765601794959847
89,29.54199494900552
90,27.84946722965583
91,27.861863166853625
92,27.466021504916033
2,1, 5, 3, 0,21,40.00,50.00,Friday
7,26.2
87,28.592996800200063
88,28.7492171073304
89,29.51777682311698
90,27.828145666197189
91,27.836054807223399
92,27.98477418895301
2,1, 5, 3, 0,21,50.00,60.00,Friday
7,25.9
87,28.57236970031675
88,28.70842217865948
89,29.450972701174466
90,27.800033818144884
91,27.80123970095592
92,27.767760852244483
2,1, 5, 3, 0,22, 0.00,10.00,Friday
7,26.1
87,28.56168291732771
88,28.68207647140877
89,29.408649069689699
90,27.77419636811888
91,27.768654337221656
92,27.390588322026859
2,1, 5, 3, 0,22,10.00,20.00,Friday
7,25.9
87,28.53370271175732
88,28.624928885979789
89,29.310344494117517
90,27.738427414301726
91,27.725253004386148
92,27.040831542517034
2,1, 5, 3, 0,22,20.00,30.00,Friday
7,25.3
87,28.48957795119003
88,28.557126962551626
89,29.17948161039514
90,27.706225748594315
91,27.68664801548197
92,26.74597912910775
2,1, 5, 3, 0,22,30.00,40.00,Friday
7,25.3
87,28.47642909341277
88,28.5361173095707
89,29.165965859446766
90,27.681459208953976
91,27.654538920206464
92,27.46929915788434
2,1, 5, 3, 0,22,40.00,50.00,Friday
7,25.4
87,28.460600175535189
88,28.504155014786908
89,29.137697500682088
90,27.649786617313454
91,27.613760314257055
92,27.619782242104184
2,1, 5, 3, 0,22,50.00,60.00,Friday
7,25.2
87,28.449664730177234
88,28.476852915133727
89,29.113553910237806
90,27.618198415037015
91,27.57589405523576
92,26.76115190255792
2,1, 5, 3, 0,23, 0.00,10.00,Friday
7,25.1
87,28.425586975633054
88,28.438800567904609
89,29.053151803105675
90,27.59120609177891
91,27.544078600276508
92,27.187828799901419
2,1, 5, 3, 0,23,10.00,20.00,Friday
7,25.6
87,28.403005340801287
88,28.3889523796391
89,28.986814661319323
90,27.5507248761761
91,27.496559758266643
92,27.696326810034216
2,1, 5, 3, 0,23,20.00,30.00,Friday
7,25.5
87,28.396033445332106
88,28.361911484809679
89,28.966073737479648
90,27.519447478321788
91,27.4603550586531
92,27.283434068129837
2,1, 5, 3, 0,23,30.00,40.00,Friday
7,25.0
87,28.362282906943724
88,28.31179987718156
89,28.866818353668458
90,27.487103120187816
91,27.423140431554488
92,26.60032953650033
2,1, 5, 3, 0,23,40.00,50.00,Friday
7,25.0
87,28.328267447713889
88,28.262001639546097
89,28.775472866096704
90,27.45472922975248
91,27.385746339541297
92,26.828116474427824
2,1, 5, 3, 0,23,50.00,60.00,Friday
7,25.3
87,28.329267313740698
88,28.252888702357155
89,28.77920944936733
90,27.425874323095657
91,27.352040917833823
92,27.314819026353339
2,1, 5, 3, 0,24, 0.00,10.00,Friday
7,25.4
87,28.318308436748454
88,28.219321122427009
89,28.75400567944168
90,27.38884159970955
91,27.30931278058295
92,27.066477461770594
2,1, 5, 3, 0,24,10.00,20.00,Friday
7,25.4
87,28.303907698244936
88,28.18392830173926
89,28.707183305177926
90,27.35587333215565
91,27.270778939646506
92,27.085517416110944
2,1, 5, 3, 0,24,20.00,30.00,Friday
7,25.4
87,28.29309195678848
88,28.166574861178157
89,28.662720255655417
90,27.3283939777816
91,27.238059609201384
92,26.563885010331349
2,1, 5, 3, 0,24,30.00,40.00,Friday
7,25.5
87,28.27718130675942
88,28.138251072963099
89,28.600388188680069
90,27.29539561084581
91,27.199290250816604
92,26.374115480955657
2,1, 5, 3, 0,24,40.00,50.00,Friday
7,25.5
87,28.272244031968925
88,28.121788471959375
89,28.609963423339314
90,27.265121983428334
91,27.1633724640472
92,26.75740520571909
2,1, 5, 3, 0,24,50.00,60.00,Friday
7,25.6
87,28.25850399555278
88,28.09274827568925
89,28.586069068953085
90,27.2331884587935
91,27.125736603968496
92,26.861735594401936
2,2, 5, 4, 0, 1, 0.00,10.00,Saturday
7,25.4
87,28.23696708255025
88,28.063470239960404
89,28.52144429079949
90,27.20485672499968
91,27.09180733869667
92,26.478859558878683
2,2, 5, 4, 0, 1,10.00,20.00,Saturday
7,25.0
87,28.189316839339989
88,27.997861627305036
89,28.395052990416965
90,27.17205701874277
91,27.05299140416205
92,26.1351620985001
2,2, 5, 4, 0, 1,20.00,30.00,Saturday
7,24.9
87,28.14684471308676
88,27.939235576317924
89,28.2862268799642
90,27.14352676955076
91,27.018552334313044
92,25.93254745839486
2,2, 5, 4, 0, 1,30.00,40.00,Saturday
7,24.6
87,28.11145012126567
88,27.890784528864186
89,28.2162623174769
90,27.11527934221635
91,26.98455908094168
92,25.954588344072819
2,2, 5, 4, 0, 1,40.00,50.00,Saturday
7,24.7
87,28.088066581228277
88,27.85618977445668
89,28.180077245471396
90,27.086202021937674
91,26.950167790867636
92,26.101164631993254
2,2, 5, 4, 0, 1,50.00,60.00,Saturday
7,24.7
87,28.070574674881585
88,27.828557990235834
89,28.155325670285046
90,27.056157231078055
91,26.914961020336489
92,26.24793119762769
2,2, 5, 4, 0, 2, 0.00,10.00,Saturday
7,24.7
87,28.061687227843586
88,27.81461577942303
89,28.151544808073557
90,27.02808329401899
91,26.881724737806669
92,26.734225309665218
2,2, 5, 4, 0, 2,10.00,20.00,Saturday
7,24.6
87,28.049453966047019
88,27.796819287534246
89,28.13991903767422
90,27.000739296350333
91,26.849401135601864
92,26.15101044271153
2,2, 5, 4, 0, 2,20.00,30.00,Saturday
7,24.7
87,28.029136614755939
88,27.767170638438598
89,28.114252294275024
90,26.966516454967615
91,26.808557623015948
92,26.180538873448435
2,2, 5, 4, 0, 2,30.00,40.00,Saturday
7,24.6
87,27.998957865656235
88,27.725546398661679
89,28.066871568650777
90,26.9314401350059
91,26.767445663304306
92,26.163654188488044
2,2, 5, 4, 0, 2,40.00,50.00,Saturday
7,24.6
87,27.970108333298353
88,27.68499850906611
89,28.018037635060627
90,26.900435420816526
91,26.73104157234404
92,26.204561784429015
2,2, 5, 4, 0, 2,50.00,60.00,Saturday
7,24.5
87,27.944674113916947
88,27.648312482364714
89,27.97175896522086
90,26.870487627456673
91,26.695530509516727
92,26.06034186758168
2,2, 5, 4, 0, 3, 0.00,10.00,Saturday
7,24.3
87,27.922301105810584
88,27.622416834888939
89,27.91943022722733
90,26.844033117292743
91,26.66377945696744
92,26.535519183028748
2,2, 5, 4, 0, 3,10.00,20.00,Saturday
7,23.9
87,27.868935112708067
88,27.55612752034834
89,27.80616473529296
90,26.81008781319781
91,26.624094553703104
92,26.26205990707462
2,2, 5, 4, 0, 3,20.00,30.00,Saturday
7,23.6
87,27.814140715024054
88,27.488366471911648
89,27.68815512702785
90,26.779063376489899
91,26.587502385991944
92,26.000573281890618
2,2, 5, 4, 0, 3,30.00,40.00,Saturday
7,23.4
87,27.79347076951805
88,27.46375464453199
89,27.653192750483876
90,26.75150758266836
91,26.554873724736127
92,26.350015796726486
2,2, 5, 4, 0, 3,40.00,50.00,Saturday
7,23.3
87,27.74253586391938
88,27.400703401881925
89,27.564220879144814
90,26.715280396293687
91,26.51297117381253
92,25.94825142774029
2,2, 5, 4, 0, 3,50.00,60.00,Saturday
7,22.8
87,27.685250605778209
88,27.332222760150036
89,27.45737848900074
90,26.680517724520624
91,26.473027295466676
92,25.684988202822177
2,2, 5, 4, 0, 4, 0.00,10.00,Saturday
7,22.4
87,27.65158673582721
88,27.29527147502984
89,27.384143499553095
90,26.648194730706366
91,26.436962311366587
92,25.933333608910794
2,2, 5, 4, 0, 4,10.00,20.00,Saturday
7,22.1
87,27.603102370940428
88,27.24007915274258
89,27.277864272278728
90,26.61078975077157
91,26.394881416930948
92,25.06967132641667
2,2, 5, 4, 0, 4,20.00,30.00,Saturday
7,21.8
87,27.560098204605759
88,27.189676678836557
89,27.199199465890517
90,26.571885964711574
91,26.35138509907477
92,25.690620528378806
2,2, 5, 4, 0, 4,30.00,40.00,Saturday
7,21.6
87,27.518821387194579
88,27.138276843118736
89,27.150685026250075
90,26.525241690596013
91,26.299529212649874
92,24.421904939129086
2,2, 5, 4, 0, 4,40.00,50.00,Saturday
7,21.7
87,27.481745085694329
88,27.094020676577935
89,27.064528050360474
90,26.480948350327578
91,26.250752621717884
92,25.028407159640368
2,2, 5, 4, 0, 4,50.00,60.00,Saturday
7,21.9
87,27.451738605622749
88,27.053796751336379