Program Version,EnergyPlus, Version 9.5.0-de239b2e5f, YMD=2021.12.08 18:27
1,5,Environment Title[],Latitude[deg],Longitude[deg],Time Zone[],Elevation[m]
2,8,Day of Simulation[],Month[],Day of Month[],DST Indicator[1=yes 0=no],Hour[],StartMinute[],EndMinute[],DayType
3,5,Cumulative Day of Simulation[],Month[],Day of Month[],DST Indicator[1=yes 0=no],DayType  ! When Daily Report Variables Requested
4,2,Cumulative Days of Simulation[],Month[]  ! When Monthly Report Variables Requested
5,1,Cumulative Days of Simulation[] ! When Run Period Report Variables Requested
6,1,Calendar Year of Simulation[] ! When Annual Report Variables Requested
86,1,THERMAL ZONE: CUBI_1,Zone Mean Air Temperature [C] !TimeStep
87,1,THERMAL ZONE: CUBI_2,Zone Mean Air Temperature [C] !TimeStep
88,1,THERMAL ZONE: CUBI_JORGE,Zone Mean Air Temperature [C] !TimeStep
89,1,THERMAL ZONE: TECHO_1,Zone Mean Air Temperature [C] !TimeStep
90,1,THERMAL ZONE: TECHO_2,Zone Mean Air Temperature [C] !TimeStep
91,1,THERMAL ZONE: TECHO_JORGE,Zone Mean Air Temperature [C] !TimeStep
End of Data Dictionary
1,RUN PERIOD 1,  18.85, -99.14,  -6.00,1280.00
2,1, 5, 3, 0, 1, 0.00,10.00,Friday
86,27.40572695880389
87,27.113812254432508
88,27.708771130218126
89,27.00288796250091
90,26.853438465224035
91,25.607492119787826
2,1, 5, 3, 0, 1,10.00,20.00,Friday
86,27.35981835640026
87,27.05881840739221
88,27.63098413282307
89,26.976602590032589
90,26.82217888730986
91,25.863176892025558
2,1, 5, 3, 0, 1,20.00,30.00,Friday
86,27.28077561747984
87,26.960209226434615
88,27.497867908379349
89,26.936789666955187
90,26.77544112704514
91,25.512516448965333
2,1, 5, 3, 0, 1,30.00,40.00,Friday
86,27.224669309666358
87,26.88830071957459
88,27.39920707507486
89,26.90015923433362
90,26.733254893911746
91,25.667004262194607
2,1, 5, 3, 0, 1,40.00,50.00,Friday
86,27.22043913253495
87,26.88218043433841
88,27.390859920331019
89,26.866217492863706
90,26.69446065239275
91,25.315804538711818
2,1, 5, 3, 0, 1,50.00,60.00,Friday
86,27.19855914141209
87,26.856405646568765
88,27.341260495907425
89,26.822553560934609
90,26.645249415395886
91,25.536444048708075
2,1, 5, 3, 0, 2, 0.00,10.00,Friday
86,27.154565888331054
87,26.804984422842698
88,27.2381956017742
89,26.77332061827667
90,26.589594043364138
91,25.34273244610466
2,1, 5, 3, 0, 2,10.00,20.00,Friday
86,27.145849100284467
87,26.790684643803094
88,27.23499980428926
89,26.733556193860875
90,26.544103150760664
91,24.842602389368545
2,1, 5, 3, 0, 2,20.00,30.00,Friday
86,27.12010622836103
87,26.75653197485753
88,27.197842467401835
89,26.684189113730989
90,26.488376326719924
91,24.94699418133271
2,1, 5, 3, 0, 2,30.00,40.00,Friday
86,27.090374747037349
87,26.715888424829769
88,27.145589721780995
89,26.629379075048275
90,26.426385732536816
91,24.862459012128065
2,1, 5, 3, 0, 2,40.00,50.00,Friday
86,27.074766440670929
87,26.69618034144391
88,27.11602602735055
89,26.587198442992049
90,26.377724669480103
91,25.14419987026028
2,1, 5, 3, 0, 2,50.00,60.00,Friday
86,27.0436531662866
87,26.657021882198174
88,27.05877164394127
89,26.536628471170827
90,26.320107248780837
91,24.855596072991856
2,1, 5, 3, 0, 3, 0.00,10.00,Friday
86,27.000866822241418
87,26.60262657891669
88,26.98144957966678
89,26.482793700204348
90,26.257468220337029
91,24.67950000204253
2,1, 5, 3, 0, 3,10.00,20.00,Friday
86,26.960040675723279
87,26.550003588561006
88,26.908912598979929
89,26.433839510354937
90,26.200826322691524
91,24.603454239728966
2,1, 5, 3, 0, 3,20.00,30.00,Friday
86,26.940682147573186
87,26.526971440043384
88,26.868917266875429
89,26.392754084592008
90,26.153020064700589
91,24.875436957702584
2,1, 5, 3, 0, 3,30.00,40.00,Friday
86,26.90023462716063
87,26.473824529444827
88,26.799267098286266
89,26.33783830156208
90,26.091109174465467
91,24.466658061965615
2,1, 5, 3, 0, 3,40.00,50.00,Friday
86,26.874773924591787
87,26.443429207111558
88,26.74429881579949
89,26.29246332766913
90,26.03895676323266
91,25.07553115725834
2,1, 5, 3, 0, 3,50.00,60.00,Friday
86,26.846603445079304
87,26.407358601687475
88,26.705929772570636
89,26.24422634398121
90,25.984350886587977
91,24.376798058488999
2,1, 5, 3, 0, 4, 0.00,10.00,Friday
86,26.794838364514328
87,26.342290719484276
88,26.60689331573653
89,26.188800408561183
90,25.922655481792526
91,24.89189772201422
2,1, 5, 3, 0, 4,10.00,20.00,Friday
86,26.777488529002576
87,26.319935765921099
88,26.567133505984495
89,26.14332721742106
90,25.871662143252796
91,25.30094664683999
2,1, 5, 3, 0, 4,20.00,30.00,Friday
86,26.740751123475243
87,26.27418970939616
88,26.506246149884846
89,26.088705628196509
90,25.81142851868657
91,24.495413832762315
2,1, 5, 3, 0, 4,30.00,40.00,Friday
86,26.70513215838575
87,26.230576363789234
88,26.43457136067355
89,26.03663747933231
90,25.754630540211474
91,25.032895732505474
2,1, 5, 3, 0, 4,40.00,50.00,Friday
86,26.66146883873454
87,26.177281256006894
88,26.3597246045768
89,25.981897324963066
90,25.696147270728493
91,24.288660535166586
2,1, 5, 3, 0, 4,50.00,60.00,Friday
86,26.62925965461531
87,26.136967618251199
88,26.294568463720645
89,25.92958850718069
90,25.639227937019954
91,24.881649962079036
2,1, 5, 3, 0, 5, 0.00,10.00,Friday
86,26.587325262351635
87,26.084951864579446
88,26.22577819391556
89,25.87099174898912
90,25.575611948541878
91,24.444752902089957
2,1, 5, 3, 0, 5,10.00,20.00,Friday
86,26.527832936490709
87,26.012209378995935
88,26.115183219988987
89,25.809943352958745
90,25.509459271077913
91,24.527778423346928
2,1, 5, 3, 0, 5,20.00,30.00,Friday
86,26.506089582315878
87,25.98116931917489
88,26.104145207737298
89,25.750838929967388
90,25.445744902757889
91,23.93287025281682
2,1, 5, 3, 0, 5,30.00,40.00,Friday
86,26.468232799627335
87,25.931701119023985
88,26.055272879383894
89,25.69210702551023
90,25.382499834805896
91,24.14758535673704
2,1, 5, 3, 0, 5,40.00,50.00,Friday
86,26.4322537801416
87,25.88220719663956
88,26.013061050675274
89,25.626961241242144
90,25.312356261859436
91,23.863067859510215
2,1, 5, 3, 0, 5,50.00,60.00,Friday
86,26.410885004976003
87,25.85350785972023
88,25.998807078768374
89,25.57259250209565
90,25.254063128721385
91,23.360857288942478
2,1, 5, 3, 0, 6, 0.00,10.00,Friday
86,26.375714820412779
87,25.806952239795
88,25.96282380634683
89,25.511118523601149
90,25.187920648784858
91,23.651094891824273
2,1, 5, 3, 0, 6,10.00,20.00,Friday
86,26.321055026671727
87,25.744544403177146
88,25.85685507695178
89,25.451426779743647
90,25.12372281390042
91,23.24964472380843
2,1, 5, 3, 0, 6,20.00,30.00,Friday
86,26.273552649195794
87,25.688156326078535
88,25.76405132130397
89,25.394004948069317
90,25.061825453609779
91,23.79150594895942
2,1, 5, 3, 0, 6,30.00,40.00,Friday
86,26.195992402339635
87,25.5992573227235
88,25.60716830843752
89,25.331215738678944
90,24.99408099299505
91,23.630587541518975
2,1, 5, 3, 0, 6,40.00,50.00,Friday
86,26.161458246479044
87,25.556083872577366
88,25.561825762550634
89,25.270819743744899
90,24.929035420675186
91,23.107606009781394
2,1, 5, 3, 0, 6,50.00,60.00,Friday
86,26.117248910691364
87,25.5001434532419
88,25.5078235214733
89,25.210708391895076
90,24.864351980484235
91,22.820024964250348
2,1, 5, 3, 0, 7, 0.00,10.00,Friday
86,26.085921530170468
87,25.460816667087174
88,25.459785958821045
89,25.14879123149592
90,24.79795144769126
91,23.18871645481306
2,1, 5, 3, 0, 7,10.00,20.00,Friday
86,26.050957344115575
87,25.413988186886745
88,25.414947738801624
89,25.0835422787699
90,24.727899131072
91,23.271616429809968
2,1, 5, 3, 0, 7,20.00,30.00,Friday
86,26.026741329132045
87,25.378069202586987
88,25.40415779090248
89,25.01635654459821
90,24.655922443864076
91,22.3322079053832
2,1, 5, 3, 0, 7,30.00,40.00,Friday
86,25.98186234855656
87,25.320960305841298
88,25.359630155390226
89,24.952782545440198
90,24.587757077998888
91,22.306323810716266
2,1, 5, 3, 0, 7,40.00,50.00,Friday
86,25.937742749630336
87,25.264850568126087
88,25.32182555800916
89,24.885075981187734
90,24.51504802202752
91,22.454461218324537
2,1, 5, 3, 0, 7,50.00,60.00,Friday
86,25.927851031917336
87,25.24999776221069
88,25.32561100474539
89,24.828248608878149
90,24.454045927965667
91,22.776802089672555
2,1, 5, 3, 0, 8, 0.00,10.00,Friday
86,25.898057068267144
87,25.20924006921679
88,25.303229959310874
89,24.76234258495945
90,24.382975421341656
91,23.759869936837867
2,1, 5, 3, 0, 8,10.00,20.00,Friday
86,25.87644620039731
87,25.179427520490436
88,25.287230788729557
89,24.70291091402713
90,24.319025085692887
91,23.661687417719869
2,1, 5, 3, 0, 8,20.00,30.00,Friday
86,25.882698176565456
87,25.175668923341566
88,25.35779315450813
89,24.64390101897508
90,24.255314057491704
91,23.263565940207934
2,1, 5, 3, 0, 8,30.00,40.00,Friday
86,25.915556383643563
87,25.195339992050845
88,25.49420413826581
89,24.588015081410317
90,24.194573603940776
91,23.108981606926088
2,1, 5, 3, 0, 8,40.00,50.00,Friday
86,25.95854298316094
87,25.223627927489078
88,25.628328527097368
89,24.535210636210416
90,24.136363202671885
91,23.38190049439241
2,1, 5, 3, 0, 8,50.00,60.00,Friday
86,25.992133654501435
87,25.245949887994564
88,25.727272859917279
89,24.486968206707699
90,24.08204011095822
91,23.671827889957418
2,1, 5, 3, 0, 9, 0.00,10.00,Friday
86,26.023370754717015
87,25.270782345151305
88,25.805390040331348
89,24.447549247973357
90,24.03617004804822
91,24.106833559816566
2,1, 5, 3, 0, 9,10.00,20.00,Friday
86,26.05159009599674
87,25.288512094247336
88,25.88976530940602
89,24.41108321740965
90,23.992452492839428
91,24.080317466651743
2,1, 5, 3, 0, 9,20.00,30.00,Friday
86,26.06865714232749
87,25.29524734296027
88,25.954376555097566
89,24.37934635729791
90,23.953102619449035
91,24.07154253848307
2,1, 5, 3, 0, 9,30.00,40.00,Friday
86,26.083623814387975
87,25.300940051189355
88,26.009520906962565
89,24.358415350523303
90,23.925685289215346
91,24.14150160567577
2,1, 5, 3, 0, 9,40.00,50.00,Friday
86,26.105987764924934
87,25.315069939073014
88,26.071892797609637
89,24.344773824093907
90,23.906632572251789
91,24.2782045602059
2,1, 5, 3, 0, 9,50.00,60.00,Friday
86,26.13143438154951
87,25.335107997124969
88,26.135507528126277
89,24.336247187128188
90,23.89362562556834
91,24.20890639436703
2,1, 5, 3, 0,10, 0.00,10.00,Friday
86,26.149682953852428
87,25.353931210554948
88,26.327558849016549
89,24.33401392483629
90,23.888358225449715
91,24.59065878808274
2,1, 5, 3, 0,10,10.00,20.00,Friday
86,26.179492837143714
87,25.384753682950448
88,26.5362767369564
89,24.335465371984886
90,23.887053533104127
91,24.78182526718812
2,1, 5, 3, 0,10,20.00,30.00,Friday
86,26.21287513144505
87,25.41621249880244
88,26.675519492735125
89,24.342026567827813
90,23.891446801307059
91,24.914084049808229
2,1, 5, 3, 0,10,30.00,40.00,Friday
86,26.241654987529928
87,25.44731642378605
88,26.744327877542199
89,24.35400407994443
90,23.902256106655778
91,24.828634500335693
2,1, 5, 3, 0,10,40.00,50.00,Friday
86,26.266520451027515
87,25.47739343366499
88,26.790050478748989
89,24.370397565962294
90,23.918048969766248
91,25.094037945869343
2,1, 5, 3, 0,10,50.00,60.00,Friday
86,26.273008148118245
87,25.483214192352827
88,26.811685327692936
89,24.38958000340518
90,23.937147540905828
91,24.64413061182776
2,1, 5, 3, 0,11, 0.00,10.00,Friday
86,26.297240235046027
87,25.50924778401546
88,26.87574480647881
89,24.414545245980539
90,23.962522815183698
91,24.894651525771523
2,1, 5, 3, 0,11,10.00,20.00,Friday
86,26.349928809947998
87,25.569071976008947
88,26.98889862766503
89,24.444616571563409
90,23.993494456276364
91,24.847352451809536
2,1, 5, 3, 0,11,20.00,30.00,Friday
86,26.38498308024061
87,25.610706314945007
88,27.061967459254015
89,24.472406390934414
90,24.022347898605326
91,25.12433733269746
2,1, 5, 3, 0,11,30.00,40.00,Friday
86,26.422477478631156
87,25.651990166541944
88,27.146334249494247
89,24.50484507806838
90,24.056085540468457
91,25.697477013183908
2,1, 5, 3, 0,11,40.00,50.00,Friday
86,26.455912402375085
87,25.69424306393843
88,27.219390936447704
89,24.539232735508308
90,24.09180532382907
91,25.279310510496559
2,1, 5, 3, 0,11,50.00,60.00,Friday
86,26.508336832122013
87,25.760784929617377
88,27.334105241041216
89,24.580924345260198
90,24.135041579591794
91,25.392683344569315
2,1, 5, 3, 0,12, 0.00,10.00,Friday
86,26.56391238525699
87,25.828674868475067
88,27.452964437405428
89,24.62052240230923
90,24.17552738575238
91,25.79584487003261
2,1, 5, 3, 0,12,10.00,20.00,Friday
86,26.61262566815388
87,25.888159177392337
88,27.559730235335416
89,24.66525359198911
90,24.221167069813544
91,25.78987842722998
2,1, 5, 3, 0,12,20.00,30.00,Friday
86,26.666756375806285
87,25.948572926362826
88,27.67124529582942
89,24.713646294048219
90,24.27181804712214
91,27.00156487857837
2,1, 5, 3, 0,12,30.00,40.00,Friday
86,26.733684508233368
87,26.026990843637266
88,27.8072341807422
89,24.763675113924383
90,24.32554593649601
91,27.109253777073488
2,1, 5, 3, 0,12,40.00,50.00,Friday
86,26.811026148386323
87,26.11371167043168
88,27.955676514281849
89,24.81940824431326
90,24.386948080244165
91,27.3007623727582
2,1, 5, 3, 0,12,50.00,60.00,Friday
86,26.893585334167459
87,26.202898783725844
88,28.105343787905487
89,24.876519355169138
90,24.450064918709594
91,27.228969304171394
2,1, 5, 3, 0,13, 0.00,10.00,Friday
86,26.95711728822741
87,26.271418190068969
88,28.223920049983254
89,24.932202544919066
90,24.512777465152529
91,28.30668729849137
2,1, 5, 3, 0,13,10.00,20.00,Friday
86,27.028248338474559
87,26.351080076927425
88,28.348408500686025
89,24.99523879737793
90,24.584553446238919
91,27.479796119922747
2,1, 5, 3, 0,13,20.00,30.00,Friday
86,27.041048351969775
87,26.371962230202717
88,28.36509749138324
89,25.062017519639853
90,24.655557425692238
91,26.942503286789223
2,1, 5, 3, 0,13,30.00,40.00,Friday
86,27.070740640446635
87,26.409553935054839
88,28.42100384618646
89,25.13661664177696
90,24.736771838170367
91,28.226116162408915
2,1, 5, 3, 0,13,40.00,50.00,Friday
86,27.116340438387238
87,26.46862589125333
88,28.49080585787358
89,25.214537981993354
90,24.822162589768408
91,27.387507053937058
2,1, 5, 3, 0,13,50.00,60.00,Friday
86,27.138519320933378
87,26.502504516634269
88,28.540131931627376
89,25.296535148969384
90,24.913171396943534
91,28.797908663831579
2,1, 5, 3, 0,14, 0.00,10.00,Friday
86,27.184506596345849
87,26.564356296679546
88,28.635721806277915
89,25.38576760735429
90,25.01259896067455
91,28.821205458765939
2,1, 5, 3, 0,14,10.00,20.00,Friday
86,27.279797926780625
87,26.67807368275382
88,28.79727483938719
89,25.476766306563957
90,25.115245162361096
91,29.05054063169225
2,1, 5, 3, 0,14,20.00,30.00,Friday
86,27.338114085395188
87,26.74891711561888
88,28.90173108258478
89,25.554523113781984
90,25.205062691290988
91,28.14342972848022
2,1, 5, 3, 0,14,30.00,40.00,Friday
86,27.379927616609998
87,26.803528956073007
88,28.96238883161204
89,25.63328084241062
90,25.298118752529743
91,28.808611511671285
2,1, 5, 3, 0,14,40.00,50.00,Friday
86,27.48971038496921
87,26.933442882562369
88,29.144678374543724
89,25.727195714525214
90,25.415324165745696
91,28.63395676737203
2,1, 5, 3, 0,14,50.00,60.00,Friday
86,27.577009286666035
87,27.036870828318
88,29.305215641586444
89,25.82010736234889
90,25.534477344355428
91,30.056716670218905
2,1, 5, 3, 0,15, 0.00,10.00,Friday
86,27.52989770269239
87,27.006751290698703
88,29.24314648587258
89,25.909286366971906
90,25.642757679655327
91,29.09859467591236
2,1, 5, 3, 0,15,10.00,20.00,Friday
86,27.568459395112329
87,27.06115574219546
88,29.3173949350371
89,26.004028586757426
90,25.754254432305126
91,29.63684089632379
2,1, 5, 3, 0,15,20.00,30.00,Friday
86,27.663323265233268
87,27.177692215409534
88,29.482557592029115
89,26.113570089107318
90,25.881292733352774
91,28.761965297133409
2,1, 5, 3, 0,15,30.00,40.00,Friday
86,27.791865294790268
87,27.331698259018766
88,29.723730356649317
89,26.21472115742268
90,25.999259095153499
91,31.793466708687509
2,1, 5, 3, 0,15,40.00,50.00,Friday
86,27.826979310555339
87,27.385043253953577
88,29.76677682177225
89,26.309857153751186
90,26.112891655209567
91,30.528083277447136
2,1, 5, 3, 0,15,50.00,60.00,Friday
86,27.864008285060466
87,27.437599504830496
88,29.825178858565744
89,26.401640110429925
90,26.223317920160544
91,30.149286192640277
2,1, 5, 3, 0,16, 0.00,10.00,Friday
86,27.997866338422079
87,27.606188807850495
88,30.048235706735825
89,26.525813484148338
90,26.375529680960545
91,30.910511933135909
2,1, 5, 3, 0,16,10.00,20.00,Friday
86,28.092718717958407
87,27.73012170403298
88,30.20069336149067
89,26.623014843344604
90,26.483331478116058
91,31.346693743697853
2,1, 5, 3, 0,16,20.00,30.00,Friday
86,28.073589373053868
87,27.72104686135952
88,30.145442824252844
89,26.71275775385316
90,26.593343562289588
91,30.533633395267253
2,1, 5, 3, 0,16,30.00,40.00,Friday
86,28.075823502171958
87,27.73927088740827
88,30.14504707595493
89,26.824520071761737
90,26.72873900480996
91,30.347489001850986
2,1, 5, 3, 0,16,40.00,50.00,Friday
86,28.098486154877507
87,27.779972731649449
88,30.184258110628606
89,26.931230713715885
90,26.858549527118638
91,30.992688696078269
2,1, 5, 3, 0,16,50.00,60.00,Friday
86,28.082878776598883
87,27.79086346676341
88,30.149017934686737
89,27.040217508101564
90,26.990595110339404
91,30.793140239682925
2,1, 5, 3, 0,17, 0.00,10.00,Friday
86,28.078792848008196
87,27.810753271790646
88,30.19826662590017
89,27.145111589896524
90,27.11857594351325
91,31.849617769344424
2,1, 5, 3, 0,17,10.00,20.00,Friday
86,28.02129759187567
87,27.778822185361606
88,30.073429505993667
89,27.236379842124785
90,27.227923679399536
91,30.583863577556625
2,1, 5, 3, 0,17,20.00,30.00,Friday
86,27.921229905838655
87,27.719161987577956
88,29.841257716855904
89,27.347607811022458
90,27.358698161310497
91,29.307511182794977
2,1, 5, 3, 0,17,30.00,40.00,Friday
86,27.90611150072345
87,27.719081480332599
88,29.7692925850913
89,27.421615063923647
90,27.443906123035803
91,28.964140116738805
2,1, 5, 3, 0,17,40.00,50.00,Friday
86,27.8590052832118
87,27.707642535128305
88,29.620691013930285
89,27.524443512257684
90,27.559494507475237
91,28.476570753678414
2,1, 5, 3, 0,17,50.00,60.00,Friday
86,27.871812343254367
87,27.745426701281258
88,29.64900287019106
89,27.590409954365528
90,27.63159201671668
91,29.071101984272084
2,1, 5, 3, 0,18, 0.00,10.00,Friday
86,27.878333419405185
87,27.76379531102733
88,29.604485771304476
89,27.640309101502227
90,27.685266248085364
91,28.1159148678736
2,1, 5, 3, 0,18,10.00,20.00,Friday
86,27.873221148306884
87,27.78230614846148
88,29.525788417155029
89,27.69256857625402
90,27.739779735675783
91,27.478069200228803
2,1, 5, 3, 0,18,20.00,30.00,Friday
86,27.870978564590584
87,27.797637230310344
88,29.47924145672017
89,27.730247323158328
90,27.777987248831903
91,27.49371671773202
2,1, 5, 3, 0,18,30.00,40.00,Friday
86,27.892187266965665
87,27.820919528658309
88,29.53425356413492
89,27.748913166296487
90,27.79573653677452
91,27.942668221689176
2,1, 5, 3, 0,18,40.00,50.00,Friday
86,27.928817473420034
87,27.867181384312809
88,29.610756742961319
89,27.770518341855579
90,27.815433697449224
91,28.24657424746841
2,1, 5, 3, 0,18,50.00,60.00,Friday
86,27.95846804796812
87,27.903228886081427
88,29.674190428006609
89,27.78000886145169
90,27.822414984112016
91,28.427666964978856
2,1, 5, 3, 0,19, 0.00,10.00,Friday
86,27.972862103396638
87,27.919663921892629
88,29.55280316726031
89,27.782264528300879
90,27.821653443736439
91,28.281379907326327
2,1, 5, 3, 0,19,10.00,20.00,Friday
86,27.980749186947294
87,27.92684417983871
88,29.434465577654409
89,27.783070839378284
90,27.819260838308826
91,28.461071808969398
2,1, 5, 3, 0,19,20.00,30.00,Friday
86,27.9799063906382
87,27.92344928767367
88,29.374623963815734
89,27.7837926455612
90,27.816737337078818
91,28.52956845537205
2,1, 5, 3, 0,19,30.00,40.00,Friday
86,27.973605224555173
87,27.914245706985036
88,29.339912830328886
89,27.784251213864935
90,27.813932951368284
91,28.3188229631417
2,1, 5, 3, 0,19,40.00,50.00,Friday
86,27.963016781602929
87,27.900287690737988
88,29.310837616643217
89,27.784501874140024
90,27.810871864393925
91,28.278593646134604
2,1, 5, 3, 0,19,50.00,60.00,Friday
86,27.951728860253309
87,27.88532712771554
88,29.2547999137946
89,27.784491808408676
90,27.807445308176093
91,28.161754041071917
2,1, 5, 3, 0,20, 0.00,10.00,Friday
86,27.94196433108886
87,27.87156134505299
88,29.196796820935764
89,27.783834919359355
90,27.803222006383029
91,28.10474036813284
2,1, 5, 3, 0,20,10.00,20.00,Friday
86,27.92977310085759
87,27.855069508090844
88,29.14513091095683
89,27.78208503175375
90,27.79771169794136
91,28.0952781998305
2,1, 5, 3, 0,20,20.00,30.00,Friday
86,27.911793388617676
87,27.83279868373239
88,29.08039448248298
89,27.778968137067648
90,27.790603503635823
91,27.890075272681604
2,1, 5, 3, 0,20,30.00,40.00,Friday
86,27.896215916632554
87,27.812578139584287
88,29.024988405035314
89,27.774287032036477
90,27.7816874393953
91,27.90693221632162
2,1, 5, 3, 0,20,40.00,50.00,Friday
86,27.886917852787975
87,27.800504756825864
88,28.98129302856406
89,27.768653899746817
90,27.772403572079435
91,27.494464817099634
2,1, 5, 3, 0,20,50.00,60.00,Friday
86,27.86734386200892
87,27.77578982401505
88,28.898423602068065
89,27.75992163114317
90,27.758810320120455
91,27.221295215824136
2,1, 5, 3, 0,21, 0.00,10.00,Friday
86,27.839155068359447
87,27.740727824794438
88,28.78575509832216
89,27.748230122712028
90,27.741730232131837
91,26.958771218884455
2,1, 5, 3, 0,21,10.00,20.00,Friday
86,27.827341228926089
87,27.721087138392666
88,28.739018967130574
89,27.73429695882803
90,27.722796868053736
91,27.21071721628037
2,1, 5, 3, 0,21,20.00,30.00,Friday
86,27.821481124684924
87,27.706519669909704
88,28.74138263355454
89,27.71771487729543
90,27.701468117833195
91,27.411040723029019
2,1, 5, 3, 0,21,30.00,40.00,Friday
86,27.813522294554074
87,27.68904895566004
88,28.73809028949459
89,27.698596594001807
90,27.677742694025477
91,27.366898131808367
2,1, 5, 3, 0,21,40.00,50.00,Friday
86,27.8119210578487
87,27.682712416425674
88,28.72574784851345
89,27.6829189327012
90,27.659484781759063
91,27.818657957580656
2,1, 5, 3, 0,21,50.00,60.00,Friday
86,27.797860891916323
87,27.659662326050904
88,28.6759603129635
89,27.660350472589316
90,27.626858132812754
91,27.655510598504926
2,1, 5, 3, 0,22, 0.00,10.00,Friday
86,27.791682275270185
87,27.646226899635957
88,28.644689507930719
89,27.63555621256939
90,27.595397672491726
91,27.245386103474787
2,1, 5, 3, 0,22,10.00,20.00,Friday
86,27.772559950026449
87,27.61321418096911
88,28.56456427691559
89,27.60319193744807
90,27.5555674684214
91,26.925460138512478
2,1, 5, 3, 0,22,20.00,30.00,Friday
86,27.73564985430263
87,27.564749423003528
88,28.44253240943405
89,27.574908518831117
90,27.52077860454277
91,26.62697028709045
2,1, 5, 3, 0,22,30.00,40.00,Friday
86,27.722756746707284
87,27.547445152568558
88,28.425181194169928
89,27.551341650482244
90,27.491954388155638
91,27.22603115619369
2,1, 5, 3, 0,22,40.00,50.00,Friday
86,27.708700285855988
87,27.52487925564432
88,28.399565050458948
89,27.51818611964687
90,27.452425405519198
91,27.25660036422161
2,1, 5, 3, 0,22,50.00,60.00,Friday
86,27.698864236614925
87,27.505522764584748
88,28.376104016111826
89,27.486198603218378
90,27.4145357754281
91,26.700095497102429
2,1, 5, 3, 0,23, 0.00,10.00,Friday
86,27.669524536276698
87,27.461803037370819
88,28.307504260762025
89,27.4433507116893
90,27.365346502030016
91,27.023842339071149
2,1, 5, 3, 0,23,10.00,20.00,Friday
86,27.658640144386284
87,27.441821487925404
88,28.27181497622152
89,27.407977120220399
90,27.325017269701385
91,27.457635041755404
2,1, 5, 3, 0,23,20.00,30.00,Friday
86,27.658227930328878
87,27.43119911260039
88,28.263934340073008
89,27.36853177984598
90,27.280346073955884
91,27.146012892562206
2,1, 5, 3, 0,23,30.00,40.00,Friday
86,27.631054025704566
87,27.39412962408177
88,28.181287981055573
89,27.32765917263525
90,27.235654550799308
91,26.446201938491343
2,1, 5, 3, 0,23,40.00,50.00,Friday
86,27.601477011347986
87,27.354629795761125
88,28.102069804340947
89,27.29033704266451
90,27.19032761825245
91,26.630204909016649
2,1, 5, 3, 0,23,50.00,60.00,Friday
86,27.604355311356409
87,27.350921224055904
88,28.109151002827397
89,27.260479216682044
90,27.150524763271585
91,27.002004010725174
2,1, 5, 3, 0,24, 0.00,10.00,Friday
86,27.604605535834084
87,27.34071993478294
88,28.113040524817614
89,27.22352999624663
90,27.105005770586595
91,26.867285438679049
2,1, 5, 3, 0,24,10.00,20.00,Friday
86,27.592849311557644
87,27.31804580744725
88,28.07908555620845
89,27.183706027785175
90,27.057830020570255
91,26.90739234335074
2,1, 5, 3, 0,24,20.00,30.00,Friday
86,27.58050314318507
87,27.303123826793894
88,28.036137346859868
89,27.155711122410169
90,27.024916321759159
91,26.43274493072424
2,1, 5, 3, 0,24,30.00,40.00,Friday
86,27.56531619814564
87,27.282234321227166
88,27.982127192182707
89,27.12105610356597
90,26.98370068184234
91,26.27347259420463
2,1, 5, 3, 0,24,40.00,50.00,Friday
86,27.560209026536584
87,27.269733673086539
88,27.988561955396315
89,27.088948619211935
90,26.945438219907204
91,26.64525072728852
2,1, 5, 3, 0,24,50.00,60.00,Friday
86,27.549457387059204
87,27.250921917266898
88,27.974445814642285
89,27.05515816409271
90,26.905271046832128
91,26.7026092935456
2,2, 5, 4, 0, 1, 0.00,10.00,Saturday
86,27.532095219759193
87,27.230658327983656
88,27.92439583982683
89,27.02583146398875
90,26.870208451321689
91,26.349940234667753
2,2, 5, 4, 0, 1,10.00,20.00,Saturday
86,27.490473304358724
87,27.178673407359434
88,27.81711683451226
89,26.991083457155516
90,26.828945717737793
91,26.022751970346208
2,2, 5, 4, 0, 1,20.00,30.00,Saturday
86,27.451579582353163
87,27.128479826712856
88,27.718711186867439
89,26.961350940325969
90,26.793931153591499
91,25.83326642214037
2,2, 5, 4, 0, 1,30.00,40.00,Saturday
86,27.41727857884464
87,27.084136114985488
88,27.64996776836599
89,26.93209832048426
90,26.759756930621025
91,25.835844963815974
2,2, 5, 4, 0, 1,40.00,50.00,Saturday
86,27.394237980683994
87,27.053519509697599
88,27.615392558632768
89,26.901805695952104
90,26.724782588285359
91,25.966189061902925
2,2, 5, 4, 0, 1,50.00,60.00,Saturday
86,27.37828279991226
87,27.031641184714755
88,27.596294934522889
89,26.87025454705074
90,26.688941717593779
91,26.089992836499616
2,2, 5, 4, 0, 2, 0.00,10.00,Saturday
86,27.37290221751025
87,27.02291177264143
88,27.598319864704047
89,26.842778823919809
90,26.657249805114078
91,26.601054029621119
2,2, 5, 4, 0, 2,10.00,20.00,Saturday
86,27.353871321027439
87,26.994602786830563
88,27.582119357553009
89,26.806264278190335
90,26.61590263364475
91,26.179540751712893
2,2, 5, 4, 0, 2,20.00,30.00,Saturday
86,27.33588145806803
87,26.967993634286459
88,27.559872418197199
89,26.773152047092969
90,26.578050145330768
91,26.119171495508679
2,2, 5, 4, 0, 2,30.00,40.00,Saturday
86,27.31445008282574
87,26.940515963497814
88,27.523480837555718
89,26.74068482460505
90,26.540584508597037
91,26.038352202544588
2,2, 5, 4, 0, 2,40.00,50.00,Saturday
86,27.293130850241455
87,26.913969627992935
88,27.485023992357069
89,26.708745236306684
90,26.50359153838045
91,26.10285545158746
2,2, 5, 4, 0, 2,50.00,60.00,Saturday
86,27.271724282577915
87,26.886412215225087
88,27.44571927246392
89,26.67738178547319
90,26.467091833371059
91,25.963601041593326
2,2, 5, 4, 0, 3, 0.00,10.00,Saturday
86,27.25219212124101
87,26.86438720046376
88,27.402695238048218
89,26.650845323167638
90,26.435637526878098
91,26.366605876496924
2,2, 5, 4, 0, 3,10.00,20.00,Saturday
86,27.212213237791525
87,26.819157802117144
88,27.319300936705156
89,26.61901603975488
90,26.398492699134104
91,26.081607537492169
2,2, 5, 4, 0, 3,20.00,30.00,Saturday
86,27.179449144787875
87,26.78200901302324
88,27.247672295624456
89,26.589119637749147
90,26.363008066354874
91,25.756408200171316
2,2, 5, 4, 0, 3,30.00,40.00,Saturday
86,27.134962570634668
87,26.730043243331307
88,27.158856769483216
89,26.55634984421035
90,26.324899199382679
91,25.906075757418944
2,2, 5, 4, 0, 3,40.00,50.00,Saturday
86,27.091053500571694
87,26.677172720915569
88,27.078258697170204
89,26.52092196326807
90,26.28332129498274
91,25.95648891061173
2,2, 5, 4, 0, 3,50.00,60.00,Saturday
86,27.061726119961557
87,26.64441384616505
88,27.018864020567635
89,26.49223295055516
90,26.248391488651018
91,25.67298711173097
2,2, 5, 4, 0, 4, 0.00,10.00,Saturday
86,27.00858586645536
87,26.584934727332369
88,26.905961770136277
89,26.45567053465651
90,26.205954937305529
91,25.86996028279524
2,2, 5, 4, 0, 4,10.00,20.00,Saturday
86,26.965640938093537
87,26.53681498974658
88,26.808520760102064
89,26.416915509253106
90,26.161165758491714
91,24.759073266173816
2,2, 5, 4, 0, 4,20.00,30.00,Saturday
86,26.910300321532359
87,26.472795107424188
88,26.698116274899609
89,26.376725934439784
90,26.115334425871386
91,24.928845711118787
2,2, 5, 4, 0, 4,30.00,40.00,Saturday
86,26.88487710645559
87,26.440856707526846
88,26.67926105468429
89,26.334997356001027
90,26.067897182562616
91,24.392707099693117
2,2, 5, 4, 0, 4,40.00,50.00,Saturday
86,26.844099977622425
87,26.391570047757996
88,26.60092143475861
89,26.286932022803648
90,26.01414100151446
91,24.69078946114767
2,2, 5, 4, 0, 4,50.00,60.00,Saturday
86,26.826380801747669
87,26.368086926667556
88,26.569352045184404
89,26.239090883065033
90,25.960980574808319
91,25.438130437112947
2,2, 5, 4, 0, 5, 0.00,10.00,Saturday
86,26.78693534284714
87,26.32048481458869
88,26.513427123580749
89,26.18810236490948
90,25.90470010036063
91,24.16626934302394
2,2, 5, 4, 0, 5,10.00,20.00,Saturday
86,26.749040484435324
87,26.276038149976196
88,26.43167535724274
89,26.134761633435809
90,25.84662681899799
91,24.957532495947853
2,2, 5, 4, 0, 5,20.00,30.00,Saturday
86,26.727804327767907
87,26.246404656473666
88,26.40187983699037
89,26.080126371600615
90,25.787912857796866
91,25.159778106561853
2,2, 5, 4, 0, 5,30.00,40.00,Saturday
86,26.704325280401677
87,26.21549058692198
88,26.365573885622035
89,26.026639513531558
90,25.731883848561297
91,24.810114244162368
2,2, 5, 4, 0, 5,40.00,50.00,Saturday
86,26.654894179906319
87,26.154056293907027
88,26.28832174318825
89,25.96407307196494
90,25.66443100642031
91,24.897292879896765
2,2, 5, 4, 0, 5,50.00,60.00,Saturday
86,26.595032571606518
87,26.081245071004017
88,26.18589724740851
89,25.900687089244238
90,25.59593525246262
91,24.852806134361484
2,2, 5, 4, 0, 6, 0.00,10.00,Saturday
86,26.57482844328043
87,26.056077597403517
88,26.147382064884824