Program Version,EnergyPlus, Version 9.5.0-de239b2e5f, YMD=2021.12.09 23:07
1,5,Environment Title[],Latitude[deg],Longitude[deg],Time Zone[],Elevation[m]
2,8,Day of Simulation[],Month[],Day of Month[],DST Indicator[1=yes 0=no],Hour[],StartMinute[],EndMinute[],DayType
3,5,Cumulative Day of Simulation[],Month[],Day of Month[],DST Indicator[1=yes 0=no],DayType  ! When Daily Report Variables Requested
4,2,Cumulative Days of Simulation[],Month[]  ! When Monthly Report Variables Requested
5,1,Cumulative Days of Simulation[] ! When Run Period Report Variables Requested
6,1,Calendar Year of Simulation[] ! When Annual Report Variables Requested
533,1,JORGE,Zone Thermal Comfort Fanger Model PMV [] !TimeStep
534,1,JORGE,Zone Thermal Comfort Fanger Model PPD [%] !TimeStep
535,1,JORGE&OTRO,Zone Thermal Comfort Fanger Model PMV [] !TimeStep
536,1,JORGE&OTRO,Zone Thermal Comfort Fanger Model PPD [%] !TimeStep
End of Data Dictionary
1,RUN PERIOD 1,  18.85, -99.14,  -6.00,1280.00
2,1, 5, 3, 0, 1, 0.00,10.00,Friday
533,-1.796817519566293
534,66.85561485332622
535,-1.796817519566293
536,66.85561485332622
2,1, 5, 3, 0, 1,10.00,20.00,Friday
533,-1.7540802125152105
534,64.62430911707512
535,-1.7540802125152105
536,64.62430911707512
2,1, 5, 3, 0, 1,20.00,30.00,Friday
533,-1.6964279743239197
534,61.56033451935289
535,-1.6964279743239197
536,61.56033451935289
2,1, 5, 3, 0, 1,30.00,40.00,Friday
533,-1.7732426858128805
534,65.62955483676113
535,-1.7732426858128805
536,65.62955483676113
2,1, 5, 3, 0, 1,40.00,50.00,Friday
533,-1.7960572944781688
534,66.81627281139845
535,-1.7960572944781688
536,66.81627281139845
2,1, 5, 3, 0, 1,50.00,60.00,Friday
533,-1.8640540388332985
534,70.27717979506295
535,-1.8640540388332985
536,70.27717979506295
2,1, 5, 3, 0, 2, 0.00,10.00,Friday
533,-1.9959046486389205
534,76.57641513059153
535,-1.9959046486389205
536,76.57641513059153
2,1, 5, 3, 0, 2,10.00,20.00,Friday
533,-1.9111846859371429
534,72.59781243662263
535,-1.9111846859371429
536,72.59781243662263
2,1, 5, 3, 0, 2,20.00,30.00,Friday
533,-1.8512647951592123
534,69.63577671446385
535,-1.8512647951592123
536,69.63577671446385
2,1, 5, 3, 0, 2,30.00,40.00,Friday
533,-1.8100297759064575
534,67.53717129921519
535,-1.8100297759064575
536,67.53717129921519
2,1, 5, 3, 0, 2,40.00,50.00,Friday
533,-1.901429186992381
534,72.12329194969237
535,-1.901429186992381
536,72.12329194969237
2,1, 5, 3, 0, 2,50.00,60.00,Friday
533,-1.9752906807099942
534,75.63310817048444
535,-1.9752906807099942
536,75.63310817048444
2,1, 5, 3, 0, 3, 0.00,10.00,Friday
533,-2.000797830243123
534,76.79785313314793
535,-2.000797830243123
536,76.79785313314793
2,1, 5, 3, 0, 3,10.00,20.00,Friday
533,-2.0176170932379344
534,77.5515730086579
535,-2.0176170932379344
536,77.5515730086579
2,1, 5, 3, 0, 3,20.00,30.00,Friday
533,-2.133460595189827
534,82.40857026375083
535,-2.133460595189827
536,82.40857026375083
2,1, 5, 3, 0, 3,30.00,40.00,Friday
533,-2.135818486210372
534,82.50102489186077
535,-2.135818486210372
536,82.50102489186077
2,1, 5, 3, 0, 3,40.00,50.00,Friday
533,-2.277578412675226
534,87.55523102505954
535,-2.277578412675226
536,87.55523102505954
2,1, 5, 3, 0, 3,50.00,60.00,Friday
533,-2.2758328034183248
534,87.49916777233037
535,-2.2758328034183248
536,87.49916777233037
2,1, 5, 3, 0, 4, 0.00,10.00,Friday
533,-2.4084442041761338
534,91.31374878129978
535,-2.4084442041761338
536,91.31374878129978
2,1, 5, 3, 0, 4,10.00,20.00,Friday
533,-2.480386445924354
534,93.01235990816889
535,-2.480386445924354
536,93.01235990816889
2,1, 5, 3, 0, 4,20.00,30.00,Friday
533,-2.5230034842346025
534,93.90064793858554
535,-2.5230034842346025
536,93.90064793858554
2,1, 5, 3, 0, 4,30.00,40.00,Friday
533,-2.619197357933925
534,95.60247254301024
535,-2.619197357933925
536,95.60247254301024
2,1, 5, 3, 0, 4,40.00,50.00,Friday
533,-2.679257515603942
534,96.46784809681678
535,-2.679257515603942
536,96.46784809681678
2,1, 5, 3, 0, 4,50.00,60.00,Friday
533,-2.7766357850847109
534,97.58687381790513
535,-2.7766357850847109
536,97.58687381790513
2,1, 5, 3, 0, 5, 0.00,10.00,Friday
533,-2.8224985224391379
534,98.00629928969704
535,-2.8224985224391379
536,98.00629928969704
2,1, 5, 3, 0, 5,10.00,20.00,Friday
533,-2.92292887962866
534,98.72258769804279
535,-2.92292887962866
536,98.72258769804279
2,1, 5, 3, 0, 5,20.00,30.00,Friday
533,-2.8496976754432388
534,98.22614320845053
535,-2.8496976754432388
536,98.22614320845053
2,1, 5, 3, 0, 5,30.00,40.00,Friday
533,-2.8750165974061119
534,98.41285747530125
535,-2.8750165974061119
536,98.41285747530125
2,1, 5, 3, 0, 5,40.00,50.00,Friday
533,-2.862775768157906
534,98.32467778628704
535,-2.862775768157906
536,98.32467778628704
2,1, 5, 3, 0, 5,50.00,60.00,Friday
533,-2.8083528007242646
534,97.88365805211136
535,-2.8083528007242646
536,97.88365805211136
2,1, 5, 3, 0, 6, 0.00,10.00,Friday
533,-2.7923999379647177
534,97.73823423970784
535,-2.7923999379647177
536,97.73823423970784
2,1, 5, 3, 0, 6,10.00,20.00,Friday
533,-2.95436782015751
534,98.89751625281385
535,-2.95436782015751
536,98.89751625281385
2,1, 5, 3, 0, 6,20.00,30.00,Friday
533,-3.0819032489280029
534,99.41763327073885
535,-3.0819032489280029
536,99.41763327073885
2,1, 5, 3, 0, 6,30.00,40.00,Friday
533,-3.247661836004449
534,99.7710952935771
535,-3.247661836004449
536,99.7710952935771
2,1, 5, 3, 0, 6,40.00,50.00,Friday
533,-3.2422987986171205
534,99.76361361928913
535,-3.2422987986171205
536,99.76361361928913
2,1, 5, 3, 0, 6,50.00,60.00,Friday
533,-3.234166267521564
534,99.75186271008237
535,-3.234166267521564
536,99.75186271008237
2,1, 5, 3, 0, 7, 0.00,10.00,Friday
533,-3.277112678135696
534,99.80861622995083
535,-3.277112678135696
536,99.80861622995083
2,1, 5, 3, 0, 7,10.00,20.00,Friday
533,-3.2932762128210228
534,99.82682947122328
535,-3.2932762128210228
536,99.82682947122328
2,1, 5, 3, 0, 7,20.00,30.00,Friday
533,-3.1264668197037159
534,99.54146966126456
535,-3.1264668197037159
536,99.54146966126456
2,1, 5, 3, 0, 7,30.00,40.00,Friday
533,-3.0921406100719959
534,99.44833819306176
535,-3.0921406100719959
536,99.44833819306176
2,1, 5, 3, 0, 7,40.00,50.00,Friday
533,-3.1208879212888824
534,99.52731624452002
535,-3.1208879212888824
536,99.52731624452002
2,1, 5, 3, 0, 7,50.00,60.00,Friday
533,-3.197955859922302
534,99.69317250603609
535,-3.197955859922302
536,99.69317250603609
2,1, 5, 3, 0, 8, 0.00,10.00,Friday
533,-3.34857293714451
534,99.87817273695919
535,-3.34857293714451
536,99.87817273695919
2,1, 5, 3, 0, 8,10.00,20.00,Friday
533,-3.432350014628933
534,99.93053444737022
535,-3.432350014628933
536,99.93053444737022
2,1, 5, 3, 0, 8,20.00,30.00,Friday
533,-3.2806164208339716
534,99.81270050863916
535,-3.2806164208339716
536,99.81270050863916
2,1, 5, 3, 0, 8,30.00,40.00,Friday
533,-3.066088061940652
534,99.36736015429755
535,-3.066088061940652
536,99.36736015429755
2,1, 5, 3, 0, 8,40.00,50.00,Friday
533,-2.9271404352234215
534,98.74726181435494
535,-2.9271404352234215
536,98.74726181435494
2,1, 5, 3, 0, 8,50.00,60.00,Friday
533,-2.8194874223654158
534,97.98068050943874
535,-2.8194874223654158
536,97.98068050943874
2,1, 5, 3, 0, 9, 0.00,10.00,Friday
533,-2.7050369757446774
534,96.79664853281
535,-2.7050369757446774
536,96.79664853281
2,1, 5, 3, 0, 9,10.00,20.00,Friday
533,-2.6234542904878799
534,95.66857913179145
535,-2.6234542904878799
536,95.66857913179145
2,1, 5, 3, 0, 9,20.00,30.00,Friday
533,-2.581649306365086
534,94.9864014250443
535,-2.581649306365086
536,94.9864014250443
2,1, 5, 3, 0, 9,30.00,40.00,Friday
533,-2.5348003896765829
534,94.13154241017108
535,-2.5348003896765829
536,94.13154241017108
2,1, 5, 3, 0, 9,40.00,50.00,Friday
533,-2.47774084352387
534,92.95437259963768
535,-2.47774084352387
536,92.95437259963768
2,1, 5, 3, 0, 9,50.00,60.00,Friday
533,-2.432611578423051
534,91.91282710348023
535,-2.432611578423051
536,91.91282710348023
2,1, 5, 3, 0,10, 0.00,10.00,Friday
533,-0.2054029539128088
534,5.874977525381382
535,-0.2054029539128088
536,5.874977525381382
2,1, 5, 3, 0,10,10.00,20.00,Friday
533,-0.074137004242491
534,5.113804070389776
535,-0.074137004242491
536,5.113804070389776
2,1, 5, 3, 0,10,20.00,30.00,Friday
533,0.04824418723059915
534,5.048185478437603
535,0.04824418723059915
536,5.048185478437603
2,1, 5, 3, 0,10,30.00,40.00,Friday
533,0.09587129651055479
534,5.190342776804982
535,0.09587129651055479
536,5.190342776804982
2,1, 5, 3, 0,10,40.00,50.00,Friday
533,0.07762240205032819
534,5.124759072105178
535,0.07762240205032819
536,5.124759072105178
2,1, 5, 3, 0,10,50.00,60.00,Friday
533,0.11242498384000714
534,5.261788928981744
535,0.11242498384000714
536,5.261788928981744
2,1, 5, 3, 0,11, 0.00,10.00,Friday
533,0.198537909479729
534,5.817370416824332
535,0.198537909479729
536,5.817370416824332
2,1, 5, 3, 0,11,10.00,20.00,Friday
533,0.2540195912862958
534,6.339449532433363
535,0.2540195912862958
536,6.339449532433363
2,1, 5, 3, 0,11,20.00,30.00,Friday
533,0.2887303079152705
534,6.7318580578921829
535,0.2887303079152705
536,6.7318580578921829
2,1, 5, 3, 0,11,30.00,40.00,Friday
533,0.3841267742291896
534,8.072980564486457
535,0.3841267742291896
536,8.072980564486457
2,1, 5, 3, 0,11,40.00,50.00,Friday
533,0.4410369640192443
534,9.057835306751528
535,0.4410369640192443
536,9.057835306751528
2,1, 5, 3, 0,11,50.00,60.00,Friday
533,0.4461124905498524
534,9.152417178570105
535,0.4461124905498524
536,9.152417178570105
2,1, 5, 3, 0,12, 0.00,10.00,Friday
533,0.49274237000644297
534,10.073265544305471
535,0.49274237000644297
536,10.073265544305471
2,1, 5, 3, 0,12,10.00,20.00,Friday
533,0.4923414850478211
534,10.064949237254482
535,0.4923414850478211
536,10.064949237254482
2,1, 5, 3, 0,12,20.00,30.00,Friday
533,0.6211186187507151
534,13.09433203506623
535,0.6211186187507151
536,13.09433203506623
2,1, 5, 3, 0,12,30.00,40.00,Friday
533,0.6716061072507875
534,14.478281025041725
535,0.6716061072507875
536,14.478281025041725
2,1, 5, 3, 0,12,40.00,50.00,Friday
533,0.7305444513591047
534,16.233401694587458
535,0.7305444513591047
536,16.233401694587458
2,1, 5, 3, 0,12,50.00,60.00,Friday
533,0.823132791561856
534,19.291279571751575
535,0.823132791561856
536,19.291279571751575
2,1, 5, 3, 0,13, 0.00,10.00,Friday
533,0.9197778975139435
534,22.866483462936288
535,0.9197778975139435
536,22.866483462936288
2,1, 5, 3, 0,13,10.00,20.00,Friday
533,0.92649571148261
534,23.12916840256179
535,0.92649571148261
536,23.12916840256179
2,1, 5, 3, 0,13,20.00,30.00,Friday
533,0.9118755398904651
534,22.559801429271447
535,0.9118755398904651
536,22.559801429271447
2,1, 5, 3, 0,13,30.00,40.00,Friday
533,0.9551064531799042
534,24.268060453986125
535,0.9551064531799042
536,24.268060453986125
2,1, 5, 3, 0,13,40.00,50.00,Friday
533,1.0083138139733415
534,26.471018184941998
535,1.0083138139733415
536,26.471018184941998
2,1, 5, 3, 0,13,50.00,60.00,Friday
533,1.0640680562268086
534,28.893611526845903
535,1.0640680562268086
536,28.893611526845903
2,1, 5, 3, 0,14, 0.00,10.00,Friday
533,1.1538028584162539
534,33.02152025499082
535,1.1538028584162539
536,33.02152025499082
2,1, 5, 3, 0,14,10.00,20.00,Friday
533,1.2538765324928528
534,37.920701796912108
535,1.2538765324928528
536,37.920701796912108
2,1, 5, 3, 0,14,20.00,30.00,Friday
533,1.2783814985967779
534,39.16168541729195
535,1.2783814985967779
536,39.16168541729195
2,1, 5, 3, 0,14,30.00,40.00,Friday
533,1.279515092094197
534,39.21944748773044
535,1.279515092094197
536,39.21944748773044
2,1, 5, 3, 0,14,40.00,50.00,Friday
533,1.3881780961326378
534,44.88277220927119
535,1.3881780961326378
536,44.88277220927119
2,1, 5, 3, 0,14,50.00,60.00,Friday
533,1.4716769751134582
534,49.364231135308319
535,1.4716769751134582
536,49.364231135308319
2,1, 5, 3, 0,15, 0.00,10.00,Friday
533,1.431817167090866
534,47.21450765194084
535,1.431817167090866
536,47.21450765194084
2,1, 5, 3, 0,15,10.00,20.00,Friday
533,1.490085626068405
534,50.361866076932617
535,1.490085626068405
536,50.361866076932617
2,1, 5, 3, 0,15,20.00,30.00,Friday
533,1.5622403082895702
534,54.28850732468824
535,1.5622403082895702
536,54.28850732468824
2,1, 5, 3, 0,15,30.00,40.00,Friday
533,1.6670624749070789
534,59.981309799237397
535,1.6670624749070789
536,59.981309799237397
2,1, 5, 3, 0,15,40.00,50.00,Friday
533,1.5514997799632069
534,53.70319054875595
535,1.5514997799632069
536,53.70319054875595
2,1, 5, 3, 0,15,50.00,60.00,Friday
533,1.5482518497311125
534,53.52620547933232
535,1.5482518497311125
536,53.52620547933232
2,1, 5, 3, 0,16, 0.00,10.00,Friday
533,1.6831410924573827
534,60.84716464205834
535,1.6831410924573827
536,60.84716464205834
2,1, 5, 3, 0,16,10.00,20.00,Friday
533,1.695219136170366
534,61.49554508122203
535,1.695219136170366
536,61.49554508122203
2,1, 5, 3, 0,16,20.00,30.00,Friday
533,1.5768510686954956
534,55.08468340149806
535,1.5768510686954956
536,55.08468340149806
2,1, 5, 3, 0,16,30.00,40.00,Friday
533,1.5995265701350783
534,56.31954649447126
535,1.5995265701350783
536,56.31954649447126
2,1, 5, 3, 0,16,40.00,50.00,Friday
533,1.6502092402349667
534,59.0708298152745
535,1.6502092402349667
536,59.0708298152745
2,1, 5, 3, 0,16,50.00,60.00,Friday
533,1.614245540933233
534,57.12013669451966
535,1.614245540933233
536,57.12013669451966
2,1, 5, 3, 0,17, 0.00,10.00,Friday
533,1.6470622137294096
534,58.900522333215437
535,1.6470622137294096
536,58.900522333215437
2,1, 5, 3, 0,17,10.00,20.00,Friday
533,1.3101066913935274
534,40.7894466037745
535,1.3101066913935274
536,40.7894466037745
2,1, 5, 3, 0,17,20.00,30.00,Friday
533,0.9997160945840611
534,26.107697522252424
535,0.9997160945840611
536,26.107697522252424
2,1, 5, 3, 0,17,30.00,40.00,Friday
533,0.9073348827354416
534,22.384723035032267
535,0.9073348827354416
536,22.384723035032267
2,1, 5, 3, 0,17,40.00,50.00,Friday
533,0.856371339545021
534,20.477374652282238
535,0.856371339545021
536,20.477374652282238
2,1, 5, 3, 0,17,50.00,60.00,Friday
533,1.0142101250598204
534,26.72179338105181
535,1.0142101250598204
536,26.72179338105181
2,1, 5, 3, 0,18, 0.00,10.00,Friday
533,0.8468841382262096
534,20.134130209177984
535,0.8468841382262096
536,20.134130209177984
2,1, 5, 3, 0,18,10.00,20.00,Friday
533,0.8077657571236224
534,18.75857121706936
535,0.8077657571236224
536,18.75857121706936
2,1, 5, 3, 0,18,20.00,30.00,Friday
533,0.8170773002922344
534,19.080174871826288
535,0.8170773002922344
536,19.080174871826288
2,1, 5, 3, 0,18,30.00,40.00,Friday
533,0.9022610730793751
534,22.19007458847507
535,0.9022610730793751
536,22.19007458847507
2,1, 5, 3, 0,18,40.00,50.00,Friday
533,0.9981240321299061
534,26.04072756123503
535,0.9981240321299061
536,26.04072756123503
2,1, 5, 3, 0,18,50.00,60.00,Friday
533,1.07158676543833
534,29.22892061054668
535,1.07158676543833
536,29.22892061054668
2,1, 5, 3, 0,19, 0.00,10.00,Friday
533,-0.2394492319958862
534,6.1898401050954139
535,-0.2394492319958862
536,6.1898401050954139
2,1, 5, 3, 0,19,10.00,20.00,Friday
533,-0.37864740269954935
534,7.9854714413153549
535,-0.37864740269954935
536,7.9854714413153549
2,1, 5, 3, 0,19,20.00,30.00,Friday
533,-0.37582465071595119
534,7.940890369174653
535,-0.37582465071595119
536,7.940890369174653
2,1, 5, 3, 0,19,30.00,40.00,Friday
533,-0.37918074683691507
534,7.9939329914407299
535,-0.37918074683691507
536,7.9939329914407299
2,1, 5, 3, 0,19,40.00,50.00,Friday
533,-0.38573437795430107
534,8.09889826821832
535,-0.38573437795430107
536,8.09889826821832
2,1, 5, 3, 0,19,50.00,60.00,Friday
533,-0.4482767105715602
534,9.193084005219859
535,-0.4482767105715602
536,9.193084005219859
2,1, 5, 3, 0,20, 0.00,10.00,Friday
533,-0.4849983673995455
534,9.913844802108202
535,-0.4849983673995455
536,9.913844802108202
2,1, 5, 3, 0,20,10.00,20.00,Friday
533,-0.497443946295526
534,10.17131720424733
535,-0.497443946295526
536,10.17131720424733
2,1, 5, 3, 0,20,20.00,30.00,Friday
533,-0.5574512214897188
534,11.50675882449434
535,-0.5574512214897188
536,11.50675882449434
2,1, 5, 3, 0,20,30.00,40.00,Friday
533,-0.5973328777110745
534,12.480641810693968
535,-0.5973328777110745
536,12.480641810693968
2,1, 5, 3, 0,20,40.00,50.00,Friday
533,-0.6971569406736979
534,15.220745201602881
535,-0.6971569406736979
536,15.220745201602881
2,1, 5, 3, 0,20,50.00,60.00,Friday
533,-0.8118628612560639
534,18.899627361463574
535,-0.8118628612560639
536,18.899627361463574
2,1, 5, 3, 0,21, 0.00,10.00,Friday
533,-0.9934593285054552
534,25.845062070029657
535,-0.9934593285054552
536,25.845062070029657
2,1, 5, 3, 0,21,10.00,20.00,Friday
533,-0.9981678553956613
534,26.042569694774828
535,-0.9981678553956613
536,26.042569694774828
2,1, 5, 3, 0,21,20.00,30.00,Friday
533,-0.8585822482978367
534,20.557901709677368
535,-0.8585822482978367
536,20.557901709677368
2,1, 5, 3, 0,21,30.00,40.00,Friday
533,-0.7302905922276413
534,16.22552096089045
535,-0.7302905922276413
536,16.22552096089045
2,1, 5, 3, 0,21,40.00,50.00,Friday
533,-0.7392205275010861
534,16.504403803297437
535,-0.7392205275010861
536,16.504403803297437
2,1, 5, 3, 0,21,50.00,60.00,Friday
533,-0.8555375352455179
534,20.447057971217803
535,-0.8555375352455179
536,20.447057971217803
2,1, 5, 3, 0,22, 0.00,10.00,Friday
533,-0.9249660830393616
534,23.069196665326488
535,-0.9249660830393616
536,23.069196665326488
2,1, 5, 3, 0,22,10.00,20.00,Friday
533,-1.0366100297175467
534,27.686287546164907
535,-1.0366100297175467
536,27.686287546164907
2,1, 5, 3, 0,22,20.00,30.00,Friday
533,-1.1864663184345908
534,34.58872522490935
535,-1.1864663184345908
536,34.58872522490935
2,1, 5, 3, 0,22,30.00,40.00,Friday
533,-1.2156680814960935
534,36.01665288403121
535,-1.2156680814960935
536,36.01665288403121
2,1, 5, 3, 0,22,40.00,50.00,Friday
533,-1.1870006506543618
534,34.614630785156197
535,-1.1870006506543618
536,34.614630785156197
2,1, 5, 3, 0,22,50.00,60.00,Friday
533,-1.0857444600550606
534,29.8657036312607
535,-1.0857444600550606
536,29.8657036312607
2,1, 5, 3, 0,23, 0.00,10.00,Friday
533,-1.0982251728792117
534,30.43282629907644
535,-1.0982251728792117
536,30.43282629907644
2,1, 5, 3, 0,23,10.00,20.00,Friday
533,-1.145327405985628
534,32.620266020625638
535,-1.145327405985628
536,32.620266020625638
2,1, 5, 3, 0,23,20.00,30.00,Friday
533,-1.1515230288364509
534,32.91336287547968
535,-1.1515230288364509
536,32.91336287547968
2,1, 5, 3, 0,23,30.00,40.00,Friday
533,-1.315090472175866
534,41.04719118074993
535,-1.315090472175866
536,41.04719118074993
2,1, 5, 3, 0,23,40.00,50.00,Friday
533,-1.3902702551784024
534,44.99393987223054
535,-1.3902702551784024
536,44.99393987223054
2,1, 5, 3, 0,23,50.00,60.00,Friday
533,-1.3567260397177695
534,43.22018399537468
535,-1.3567260397177695
536,43.22018399537468
2,1, 5, 3, 0,24, 0.00,10.00,Friday
533,-1.297902674571486
534,40.16058088857136
535,-1.297902674571486
536,40.16058088857136
2,1, 5, 3, 0,24,10.00,20.00,Friday
533,-1.3234134207015778
534,41.47879873839588
535,-1.3234134207015778
536,41.47879873839588
2,1, 5, 3, 0,24,20.00,30.00,Friday
533,-1.4142713384957023
534,46.27387598287248
535,-1.4142713384957023
536,46.27387598287248
2,1, 5, 3, 0,24,30.00,40.00,Friday
533,-1.4975521701910953
534,50.76718265144323
535,-1.4975521701910953
536,50.76718265144323
2,1, 5, 3, 0,24,40.00,50.00,Friday
533,-1.3630442458468697
534,43.55281408251019
535,-1.3630442458468697
536,43.55281408251019
2,1, 5, 3, 0,24,50.00,60.00,Friday
533,-1.3503042240556223
534,42.88283929403591
535,-1.3503042240556223
536,42.88283929403591
2,2, 5, 4, 0, 1, 0.00,10.00,Saturday
533,-1.4665726407155524
534,49.088084378375238
535,-1.4665726407155524
536,49.088084378375238
2,2, 5, 4, 0, 1,10.00,20.00,Saturday
533,-1.5935061236722719
534,55.991828542685009
535,-1.5935061236722719
536,55.991828542685009
2,2, 5, 4, 0, 1,20.00,30.00,Saturday
533,-1.703924198930072
534,61.96166011505178
535,-1.703924198930072
536,61.96166011505178
2,2, 5, 4, 0, 1,30.00,40.00,Saturday
533,-1.7449758343891209
534,64.14419640596828
535,-1.7449758343891209
536,64.14419640596828
2,2, 5, 4, 0, 1,40.00,50.00,Saturday
533,-1.7366484597139114
534,63.70373188270963
535,-1.7366484597139114
536,63.70373188270963
2,2, 5, 4, 0, 1,50.00,60.00,Saturday
533,-1.7281686015003189
534,63.25396010123243
535,-1.7281686015003189
536,63.25396010123243
2,2, 5, 4, 0, 2, 0.00,10.00,Saturday
533,-1.6872488548921426
534,61.06788709892322
535,-1.6872488548921426
536,61.06788709892322
2,2, 5, 4, 0, 2,10.00,20.00,Saturday
533,-1.6066884255902992
534,56.709214637844599
535,-1.6066884255902992
536,56.709214637844599
2,2, 5, 4, 0, 2,20.00,30.00,Saturday
533,-1.5503935035142754
534,53.642906519515587
535,-1.5503935035142754
536,53.642906519515587
2,2, 5, 4, 0, 2,30.00,40.00,Saturday
533,-1.590409947573961
534,55.82324408388776
535,-1.590409947573961
536,55.82324408388776
2,2, 5, 4, 0, 2,40.00,50.00,Saturday
533,-1.6433310651416755
534,58.69849485617618
535,-1.6433310651416755
536,58.69849485617618
2,2, 5, 4, 0, 2,50.00,60.00,Saturday
533,-1.6557656076249657
534,59.37130793086177
535,-1.6557656076249657
536,59.37130793086177
2,2, 5, 4, 0, 3, 0.00,10.00,Saturday
533,-1.7501851954023875
534,64.41909815720843
535,-1.7501851954023875
536,64.41909815720843
2,2, 5, 4, 0, 3,10.00,20.00,Saturday
533,-1.8711946186858866
534,70.63320631831675
535,-1.8711946186858866
536,70.63320631831675
2,2, 5, 4, 0, 3,20.00,30.00,Saturday
533,-1.967347846781375
534,75.26522908804499
535,-1.967347846781375
536,75.26522908804499
2,2, 5, 4, 0, 3,30.00,40.00,Saturday
533,-2.0297806575026104
534,78.08935578114063
535,-2.0297806575026104
536,78.08935578114063
2,2, 5, 4, 0, 3,40.00,50.00,Saturday
533,-2.045110744304202
534,78.75820784890556
535,-2.045110744304202
536,78.75820784890556
2,2, 5, 4, 0, 3,50.00,60.00,Saturday
533,-2.143702611273835
534,82.80823170682095
535,-2.143702611273835
536,82.80823170682095
2,2, 5, 4, 0, 4, 0.00,10.00,Saturday
533,-2.278652577470358
534,87.58965205793521
535,-2.278652577470358
536,87.58965205793521
2,2, 5, 4, 0, 4,10.00,20.00,Saturday
533,-2.3979179947894577
534,91.0436766414671
535,-2.3979179947894577
536,91.0436766414671
2,2, 5, 4, 0, 4,20.00,30.00,Saturday
533,-2.472903881140649
534,92.84748317578507
535,-2.472903881140649
536,92.84748317578507
2,2, 5, 4, 0, 4,30.00,40.00,Saturday
533,-2.386824992305103
534,90.75301839394089
535,-2.386824992305103
536,90.75301839394089
2,2, 5, 4, 0, 4,40.00,50.00,Saturday
533,-2.4937920562222697
534,93.30103813605439
535,-2.4937920562222697
536,93.30103813605439
2,2, 5, 4, 0, 4,50.00,60.00,Saturday
533,-2.5466875793142558
534,94.35776362270132
535,-2.5466875793142558
536,94.35776362270132
2,2, 5, 4, 0, 5, 0.00,10.00,Saturday
533,-2.526089595299103
534,93.96166988020673
535,-2.526089595299103
536,93.96166988020673
2,2, 5, 4, 0, 5,10.00,20.00,Saturday
533,-2.6381973507468965
534,95.89178893346637
535,-2.6381973507468965
536,95.89178893346637
2,2, 5, 4, 0, 5,20.00,30.00,Saturday
533,-2.6778405528876547
534,96.44905595932532
535,-2.6778405528876547
536,96.44905595932532
2,2, 5, 4, 0, 5,30.00,40.00,Saturday
533,-2.693771878769339
534,96.65599609324083
535,-2.693771878769339
536,96.65599609324083
2,2, 5, 4, 0, 5,40.00,50.00,Saturday
533,-2.7356214173551067
534,97.15557866035626
535,-2.7356214173551067
536,97.15557866035626
2,2, 5, 4, 0, 5,50.00,60.00,Saturday
533,-2.8135504984834238
534,97.92939983228796
535,-2.8135504984834238
536,97.92939983228796
2,2, 5, 4, 0, 6, 0.00,10.00,Saturday
533,-2.8698622162009057
534,98.37619580638185
535,-2.8698622162009057
536,98.37619580638185
2,2, 5, 4, 0, 6,10.00,20.00,Saturday
533,-2.872605030467136
534,98.39578894323847
535,-2.872605030467136
536,98.39578894323847
2,2, 5, 4, 0, 6,20.00,30.00,Saturday
533,-2.9174990808881158
534,98.69019052812499
535,-2.9174990808881158
536,98.69019052812499
2,2, 5, 4, 0, 6,30.00,40.00,Saturday
533,-3.0053572523743106
534,99.13896089500061
535,-3.0053572523743106
536,99.13896089500061
2,2, 5, 4, 0, 6,40.00,50.00,Saturday
533,-2.997395077074341
534,99.10445977435779
535,-2.997395077074341
536,99.10445977435779
2,2, 5, 4, 0, 6,50.00,60.00,Saturday
533,-2.9119544973031719
534,98.65641827482331
535,-2.9119544973031719
536,98.65641827482331
2,2, 5, 4, 0, 7, 0.00,10.00,Saturday
533,-2.83024664649952
534,98.07103000277778
535,-2.83024664649952
536,98.07103000277778
2,2, 5, 4, 0, 7,10.00,20.00,Saturday
533,-2.7297912726710504
534,97.08968918004385
535,-2.7297912726710504
536,97.08968918004385
2,2, 5, 4, 0, 7,20.00,30.00,Saturday
533,-2.6795856685795225
534,96.47218930401104
535,-2.6795856685795225
536,96.47218930401104
2,2, 5, 4, 0, 7,30.00,40.00,Saturday
533,-2.7467271835986217
534,97.27787514936864
535,-2.7467271835986217
536,97.27787514936864
2,2, 5, 4, 0, 7,40.00,50.00,Saturday
533,-2.837488253544979
534,98.1299990186828
535,-2.837488253544979
536,98.1299990186828
2,2, 5, 4, 0, 7,50.00,60.00,Saturday
533,-2.953156026305711
534,98.89116061035628
535,-2.953156026305711
536,98.89116061035628
2,2, 5, 4, 0, 8, 0.00,10.00,Saturday
533,-3.028895118165918
534,99.23453374097126
535,-3.028895118165918
536,99.23453374097126
2,2, 5, 4, 0, 8,10.00,20.00,Saturday
533,-2.9359905262307146
534,98.79783965386723
535,-2.9359905262307146
536,98.79783965386723
2,2, 5, 4, 0, 8,20.00,30.00,Saturday
533,-2.8464461736806556
534,98.20093596661342
535,-2.8464461736806556
536,98.20093596661342
2,2, 5, 4, 0, 8,30.00,40.00,Saturday
533,-2.768001152263668
534,97.50064963682074
535,-2.768001152263668
536,97.50064963682074
2,2, 5, 4, 0, 8,40.00,50.00,Saturday
533,-2.677624791257309
534,96.44618779251651
535,-2.677624791257309
536,96.44618779251651
2,2, 5, 4, 0, 8,50.00,60.00,Saturday
533,-2.574991092580487
534,94.8708428507768
535,-2.574991092580487
536,94.8708428507768
2,2, 5, 4, 0, 9, 0.00,10.00,Saturday
533,-2.4684639061285957
534,92.74837231168448
535,-2.4684639061285957
536,92.74837231168448
2,2, 5, 4, 0, 9,10.00,20.00,Saturday
533,-2.417153970390789
534,91.5330122777713
535,-2.417153970390789
536,91.5330122777713
2,2, 5, 4, 0, 9,20.00,30.00,Saturday
533,-2.386527471686657
534,90.7451371224141
535,-2.386527471686657
536,90.7451371224141
2,2, 5, 4, 0, 9,30.00,40.00,Saturday
533,-2.3374060532105487
534,89.38217052657407
535,-2.3374060532105487
536,89.38217052657407
2,2, 5, 4, 0, 9,40.00,50.00,Saturday
533,-2.2576326646721216
534,86.90534619595053
535,-2.2576326646721216
536,86.90534619595053
2,2, 5, 4, 0, 9,50.00,60.00,Saturday
533,-2.235703057852925
534,86.16738050312697
535,-2.235703057852925
536,86.16738050312697
2,2, 5, 4, 0,10, 0.00,10.00,Saturday
533,-2.2989330156354454
534,88.2284195969377
535,-2.2989330156354454
536,88.2284195969377
2,2, 5, 4, 0,10,10.00,20.00,Saturday
533,-2.3457369786136517
534,89.6220025303421
535,-2.3457369786136517
536,89.6220025303421
2,2, 5, 4, 0,10,20.00,30.00,Saturday
533,-2.3107108711855854
534,88.58969143889847
535,-2.3107108711855854
536,88.58969143889847
2,2, 5, 4, 0,10,30.00,40.00,Saturday
533,-2.289163569542227
534,87.92334876854854
535,-2.289163569542227
536,87.92334876854854
2,2, 5, 4, 0,10,40.00,50.00,Saturday
533,-2.2357209448125157
534,86.16799239623754
535,-2.2357209448125157
536,86.16799239623754
2,2, 5, 4, 0,10,50.00,60.00,Saturday
533,-2.178692329107881
534,84.13522893230645
535,-2.178692329107881
536,84.13522893230645
2,2, 5, 4, 0,11, 0.00,10.00,Saturday
533,-2.111365635306445
534,81.52938226612672
535,-2.111365635306445
536,81.52938226612672
2,2, 5, 4, 0,11,10.00,20.00,Saturday
533,-2.0630407552783289
534,79.52758037227339
535,-2.0630407552783289
536,79.52758037227339
2,2, 5, 4, 0,11,20.00,30.00,Saturday
533,-1.9958971348977309
534,76.57607436111045
535,-1.9958971348977309
536,76.57607436111045
2,2, 5, 4, 0,11,30.00,40.00,Saturday
533,-1.9250804744970267
534,73.268189848106
535,-1.9250804744970267
536,73.268189848106
2,2, 5, 4, 0,11,40.00,50.00,Saturday
533,-1.8571039148569558
534,69.92920521843486
535,-1.8571039148569558
536,69.92920521843486
2,2, 5, 4, 0,11,50.00,60.00,Saturday
533,-1.7697718111688337
534,65.44802811170735
535,-1.7697718111688337
536,65.44802811170735
2,2, 5, 4, 0,12, 0.00,10.00,Saturday
533,-1.6843024885289222
534,60.90959098967688
535,-1.6843024885289222
536,60.90959098967688
2,2, 5, 4, 0,12,10.00,20.00,Saturday
533,-1.6360843891626247
534,58.30579546752082
535,-1.6360843891626247
536,58.30579546752082
2,2, 5, 4, 0,12,20.00,30.00,Saturday
533,-1.5039217345675338
534,51.11321518996052
535,-1.5039217345675338
536,51.11321518996052
2,2, 5, 4, 0,12,30.00,40.00,Saturday
533,-1.2965011994734728
534,40.0885757307486
535,-1.2965011994734728
536,40.0885757307486
2,2, 5, 4, 0,12,40.00,50.00,Saturday
533,-1.3238890549941279
534,41.50350754667307
535,-1.3238890549941279
536,41.50350754667307
2,2, 5, 4, 0,12,50.00,60.00,Saturday
533,-1.3425245713242538
534,42.47519485063971
535,-1.3425245713242538
536,42.47519485063971
2,2, 5, 4, 0,13, 0.00,10.00,Saturday
533,-1.1882826374382388
534,34.67681867378816
535,-1.1882826374382388
536,34.67681867378816
2,2, 5, 4, 0,13,10.00,20.00,Saturday
533,-1.0372996464248885
534,27.716274899972477
535,-1.0372996464248885
536,27.716274899972477
2,2, 5, 4, 0,13,20.00,30.00,Saturday
533,-0.9884247183780547
534,25.63481177188008
535,-0.9884247183780547
536,25.63481177188008
2,2, 5, 4, 0,13,30.00,40.00,Saturday
533,-0.9681631801159851
534,24.798524401061799
535,-0.9681631801159851
536,24.798524401061799
2,2, 5, 4, 0,13,40.00,50.00,Saturday
533,-0.908408623262271
534,22.426049010847949
535,-0.908408623262271
536,22.426049010847949
2,2, 5, 4, 0,13,50.00,60.00,Saturday
533,-0.7815918803769942
534,17.874211010294134
535,-0.7815918803769942
536,17.874211010294134
2,2, 5, 4, 0,14, 0.00,10.00,Saturday
533,-0.6429410977087816
534,13.67896264090372
535,-0.6429410977087816
536,13.67896264090372
2,2, 5, 4, 0,14,10.00,20.00,Saturday
533,-0.6736381516259742
534,14.536295198209857
535,-0.6736381516259742
536,14.536295198209857
2,2, 5, 4, 0,14,20.00,30.00,Saturday
533,-0.6715400524636163
534,14.476398183034562
535,-0.6715400524636163
536,14.476398183034562
2,2, 5, 4, 0,14,30.00,40.00,Saturday
533,-0.7486312977501705
534,16.80200706415782
535,-0.7486312977501705
536,16.80200706415782
2,2, 5, 4, 0,14,40.00,50.00,Saturday
533,-0.8080666741541442
534,18.768907163195693
535,-0.8080666741541442
536,18.768907163195693
2,2, 5, 4, 0,14,50.00,60.00,Saturday
533,-0.5484602874989046
534,11.296735930415963
535,-0.5484602874989046
536,11.296735930415963
2,2, 5, 4, 0,15, 0.00,10.00,Saturday
533,-0.4838924575523968