Program Version,EnergyPlus, Version 9.5.0-de239b2e5f, YMD=2021.12.08 23:11
1,5,Environment Title[],Latitude[deg],Longitude[deg],Time Zone[],Elevation[m]
2,8,Day of Simulation[],Month[],Day of Month[],DST Indicator[1=yes 0=no],Hour[],StartMinute[],EndMinute[],DayType
3,5,Cumulative Day of Simulation[],Month[],Day of Month[],DST Indicator[1=yes 0=no],DayType  ! When Daily Report Variables Requested
4,2,Cumulative Days of Simulation[],Month[]  ! When Monthly Report Variables Requested
5,1,Cumulative Days of Simulation[] ! When Run Period Report Variables Requested
6,1,Calendar Year of Simulation[] ! When Annual Report Variables Requested
86,1,THERMAL ZONE: CUBI_1,Zone Mean Air Temperature [C] !TimeStep
87,1,THERMAL ZONE: CUBI_2,Zone Mean Air Temperature [C] !TimeStep
88,1,THERMAL ZONE: CUBI_JORGE,Zone Mean Air Temperature [C] !TimeStep
89,1,THERMAL ZONE: TECHO_1,Zone Mean Air Temperature [C] !TimeStep
90,1,THERMAL ZONE: TECHO_2,Zone Mean Air Temperature [C] !TimeStep
91,1,THERMAL ZONE: TECHO_JORGE,Zone Mean Air Temperature [C] !TimeStep
End of Data Dictionary
1,RUN PERIOD 1,  18.85, -99.14,  -6.00,1280.00
2,1, 5, 3, 0, 1, 0.00,10.00,Friday
86,28.31649623739593
87,28.324718310668965
88,26.167789078574516
89,27.23717470318729
90,27.181316199245214
91,25.509174402298866
2,1, 5, 3, 0, 1,10.00,20.00,Friday
86,28.275187795294856
87,28.267224047998228
88,26.57489772660379
89,27.211019537938506
90,27.149971151791424
91,26.010940270462898
2,1, 5, 3, 0, 1,20.00,30.00,Friday
86,28.244427719519977
87,28.223473923432917
88,26.847834902217828
89,27.181647241158136
90,27.114970463418964
91,25.581869019326907
2,1, 5, 3, 0, 1,30.00,40.00,Friday
86,28.18530872699261
87,28.14442806419844
88,26.582855493894884
89,27.144095045526837
90,27.070819528701546
91,25.685098077922399
2,1, 5, 3, 0, 1,40.00,50.00,Friday
86,28.127336375334719
87,28.063154693558393
88,26.49274030757551
89,27.10351063441277
90,27.022807589731536
91,25.387774407970857
2,1, 5, 3, 0, 1,50.00,60.00,Friday
86,28.082113194741227
87,27.995795793353243
88,26.304187853575475
89,27.0642529413471
90,26.97619021542499
91,25.664993904362249
2,1, 5, 3, 0, 2, 0.00,10.00,Friday
86,28.06057080675736
87,27.967782011924457
88,25.88195027411942
89,27.028022521584228
90,26.933642849771596
91,25.59685325790125
2,1, 5, 3, 0, 2,10.00,20.00,Friday
86,28.046697729477097
87,27.940343809241626
88,26.634991920758137
89,26.98450423690725
90,26.883558294540319
91,24.909516356884688
2,1, 5, 3, 0, 2,20.00,30.00,Friday
86,28.01075447616758
87,27.88612611155629
88,26.887877636776869
89,26.934704157006018
90,26.82751882484211
91,24.974826074354128
2,1, 5, 3, 0, 2,30.00,40.00,Friday
86,27.974950915733964
87,27.8320021063466
88,26.89042980805246
89,26.882102285356426
90,26.769487561757324
91,24.95689158924872
2,1, 5, 3, 0, 2,40.00,50.00,Friday
86,27.956041635553516
87,27.80797058054072
88,26.50558778953954
89,26.840190454972448
90,26.722109237955576
91,25.223738937269159
2,1, 5, 3, 0, 2,50.00,60.00,Friday
86,27.906790361857838
87,27.743105269915899
88,26.293913106551419
89,26.7858745168628
90,26.661188635620474
91,24.95962377458485
2,1, 5, 3, 0, 3, 0.00,10.00,Friday
86,27.85702282327226
87,27.679073603677784
88,26.287195749578893
89,26.736047233563658
90,26.604970224638199
91,24.77684848991063
2,1, 5, 3, 0, 3,10.00,20.00,Friday
86,27.814152799158547
87,27.625830967564004
88,26.283769376231445
89,26.686516540762935
90,26.548960936476289
91,24.677082532517717
2,1, 5, 3, 0, 3,20.00,30.00,Friday
86,27.790531448691348
87,27.599058657812046
88,25.851996240780175
89,26.643081645124164
90,26.499763622723458
91,24.999435436789029
2,1, 5, 3, 0, 3,30.00,40.00,Friday
86,27.74307031022719
87,27.53790907710165
88,26.006684339090307
89,26.58875394019615
90,26.438734318050849
91,24.52812894510943
2,1, 5, 3, 0, 3,40.00,50.00,Friday
86,27.71062225728306
87,27.498147348110704
88,25.428911582327407
89,26.541920437243215
90,26.385801918844686
91,25.18608479035999
2,1, 5, 3, 0, 3,50.00,60.00,Friday
86,27.677726960891634
87,27.455587780866055
88,25.592868975303927
89,26.49307599587643
90,26.330825140477989
91,24.462879524183696
2,1, 5, 3, 0, 4, 0.00,10.00,Friday
86,27.635439731171475
87,27.40260475417278
88,25.11581436634645
89,26.44193968307733
90,26.273494134763948
91,25.148540618205347
2,1, 5, 3, 0, 4,10.00,20.00,Friday
86,27.600890354565516
87,27.357263561696717
88,24.954258241676397
89,26.390295581007224
90,26.21567156299153
91,25.39001867584345
2,1, 5, 3, 0, 4,20.00,30.00,Friday
86,27.555528251054804
87,27.299312870464346
88,24.912668441393835
89,26.337285679927239
90,26.156620579148759
91,24.64827383936567
2,1, 5, 3, 0, 4,30.00,40.00,Friday
86,27.510908088766926
87,27.24308927073895
88,24.612300253531808
89,26.283781512916648
90,26.097137226857656
91,25.19658121449458
2,1, 5, 3, 0, 4,40.00,50.00,Friday
86,27.45916683500691
87,27.178261147913135
88,24.555024221332944
89,26.228976207871395
90,26.036511892689956
91,24.446019659792
2,1, 5, 3, 0, 4,50.00,60.00,Friday
86,27.39806111389182
87,27.10022107834409
88,24.302512264852525
89,26.170171397319405
90,25.9716709498525
91,24.56693795726547
2,1, 5, 3, 0, 5, 0.00,10.00,Friday
86,27.359353216723549
87,27.050974795756454
88,24.224256157795979
89,26.113090691192963
90,25.908850912442668
91,24.86083589552542
2,1, 5, 3, 0, 5,10.00,20.00,Friday
86,27.301432933768056
87,26.97887343948154
88,23.950020956443067
89,26.0561395102272
90,25.84643596641782
91,24.58824451149082
2,1, 5, 3, 0, 5,20.00,30.00,Friday
86,27.273345925157537
87,26.939099437878153
88,24.307207884491814
89,25.99545271757569
90,25.78002204050032
91,24.07133440834178
2,1, 5, 3, 0, 5,30.00,40.00,Friday
86,27.23674730527889
87,26.892547063625913
88,24.132279607506964
89,25.942453631629275
90,25.722168009091904
91,24.42625673712073
2,1, 5, 3, 0, 5,40.00,50.00,Friday
86,27.182048095037687
87,26.817364989892967
88,24.277582752958396
89,25.872026071339428
90,25.64558011736557
91,24.044147843399715
2,1, 5, 3, 0, 5,50.00,60.00,Friday
86,27.156667440728137
87,26.783060749974827
88,24.559918570598904
89,25.81531977972844
90,25.583733090933728
91,23.490485757446789
2,1, 5, 3, 0, 6, 0.00,10.00,Friday
86,27.117140826242733
87,26.730294418265428
88,24.66449942417402
89,25.752984690158074
90,25.51589758273809
91,23.702285493896868
2,1, 5, 3, 0, 6,10.00,20.00,Friday
86,27.054937204743554
87,26.657747874616918
88,24.166592751245525
89,25.692579842372568
90,25.450058908356739
91,23.365325878446798
2,1, 5, 3, 0, 6,20.00,30.00,Friday
86,26.999897461243493
87,26.591409436282338
88,23.778868263737853
89,25.634539597522136
90,25.386754966569414
91,23.93454320147914
2,1, 5, 3, 0, 6,30.00,40.00,Friday
86,26.934247235458398
87,26.516104427163968
88,23.316699734593933
89,25.576398914851127
90,25.323253150487468
91,23.76227513059323
2,1, 5, 3, 0, 6,40.00,50.00,Friday
86,26.884375511176534
87,26.453622978764416
88,23.448706396032628
89,25.514005695475178
90,25.255285266482038
91,23.184757109328169
2,1, 5, 3, 0, 6,50.00,60.00,Friday
86,26.82143253160245
87,26.374385383925845
88,23.551517104016378
89,25.44871037130791
90,25.184274063391013
91,22.885669605670058
2,1, 5, 3, 0, 7, 0.00,10.00,Friday
86,26.785697318090116
87,26.32948231175959
88,23.4366330692094
89,25.386527493413376
90,25.116734602287698
91,23.274340398150934
2,1, 5, 3, 0, 7,10.00,20.00,Friday
86,26.74402861205892
87,26.2741305063374
88,23.434306824329874
89,25.320923365992173
90,25.04564297013181
91,23.36855395435651
2,1, 5, 3, 0, 7,20.00,30.00,Friday
86,26.71400718748957
87,26.230828519229786
88,24.194323372863559
89,25.25250278337465
90,24.97151084627707
91,22.372956845985727
2,1, 5, 3, 0, 7,30.00,40.00,Friday
86,26.661336088046594
87,26.16396938683517
88,24.294659663450667
89,25.18823630400148
90,24.901907377416813
91,22.34829629525161
2,1, 5, 3, 0, 7,40.00,50.00,Friday
86,26.609757428544915
87,26.098492421079404
88,24.15152981186785
89,25.119955810070946
90,24.827910772936514
91,22.52587997729885
2,1, 5, 3, 0, 7,50.00,60.00,Friday
86,26.596590873850084
87,26.079332770262565
88,23.848707965649337
89,25.06213682726807
90,24.765062049812977
91,22.835336215690078
2,1, 5, 3, 0, 8, 0.00,10.00,Friday
86,26.55921040711719
87,26.02886299581351
88,23.305954228976256
89,24.99584859119883
90,24.693061629332889
91,23.69097847832304
2,1, 5, 3, 0, 8,10.00,20.00,Friday
86,26.5285063020025
87,25.98693667236351
88,23.093562473788734
89,24.933801084816744
90,24.625554498085447
91,23.533071269672278
2,1, 5, 3, 0, 8,20.00,30.00,Friday
86,26.545928531695006
87,25.998010018372189
88,23.630768086543683
89,24.879099625109974
90,24.56584892951089
91,23.345980610042763
2,1, 5, 3, 0, 8,30.00,40.00,Friday
86,26.56833833773965
87,26.00858592138112
88,24.41371338365701
89,24.823022029302757
90,24.50426034032452
91,23.082041247601596
2,1, 5, 3, 0, 8,40.00,50.00,Friday
86,26.60327163523388
87,26.031748735936654
88,24.78374556063273
89,24.768840448721599
90,24.4439174771844
91,23.49016439576736
2,1, 5, 3, 0, 8,50.00,60.00,Friday
86,26.64134010390151
87,26.056268490292938
88,25.007903547820239
89,24.717599236166813
90,24.385727049596516
91,23.756308015795218
2,1, 5, 3, 0, 9, 0.00,10.00,Friday
86,26.681046761822786
87,26.087853850594106
88,25.2922265014404
89,24.67557435927992
90,24.33633850550956
91,24.1577207556087
2,1, 5, 3, 0, 9,10.00,20.00,Friday
86,26.7172226907597
87,26.11277281178131
88,25.56493190504238
89,24.63838598542314
90,24.291337729758597
91,24.137622834149604
2,1, 5, 3, 0, 9,20.00,30.00,Friday
86,26.74029004884354
87,26.125967400019918
88,25.653577806397654
89,24.60584318987151
90,24.250588660573429
91,24.123337603865175
2,1, 5, 3, 0, 9,30.00,40.00,Friday
86,26.762346682201988
87,26.14070833037327
88,25.77457551293466
89,24.58392980273853
90,24.221598439242706
91,24.178160799787479
2,1, 5, 3, 0, 9,40.00,50.00,Friday
86,26.79456791134845
87,26.16845127292522
88,25.92609764703014
89,24.569294082159627
90,24.200959647728845
91,24.32506448347467
2,1, 5, 3, 0, 9,50.00,60.00,Friday
86,26.831334787362616
87,26.203372306686217
88,26.025292273654075
89,24.559791786832073
90,24.186404383580329
91,24.22755671171756
2,1, 5, 3, 0,10, 0.00,10.00,Friday
86,26.86069776680681
87,26.23038673705823
88,26.318921450875025
89,24.556619403104059
90,24.179657705063
91,24.63691786624255
2,1, 5, 3, 0,10,10.00,20.00,Friday
86,26.91670905107258
87,26.284568073140528
88,26.671368140929816
89,24.5567499151823
90,24.176300993435726
91,24.736148338778038
2,1, 5, 3, 0,10,20.00,30.00,Friday
86,26.960344646953396
87,26.33112656557568
88,26.901940021548176
89,24.5623373866069
90,24.17943863592593
91,24.933304185422789
2,1, 5, 3, 0,10,30.00,40.00,Friday
86,26.990192743689986
87,26.371678100570553
88,26.851454308932465
89,24.57347015049417
90,24.188907303985226
91,24.947350050600496
2,1, 5, 3, 0,10,40.00,50.00,Friday
86,27.017150879973266
87,26.413632889171479
88,26.764781046267307
89,24.588813883041568
90,24.20314037076732
91,25.20449087144513
2,1, 5, 3, 0,10,50.00,60.00,Friday
86,27.029623197738205
87,26.435209135156837
88,26.76987553002684
89,24.607092770113309
90,24.22099569197724
91,24.75885218250503
2,1, 5, 3, 0,11, 0.00,10.00,Friday
86,27.062952882490874
87,26.480443866758067
88,26.931254491057449
89,24.630930135489299
90,24.244806203331728
91,24.8682726393852
2,1, 5, 3, 0,11,10.00,20.00,Friday
86,27.11902886437712
87,26.55350681093951
88,27.195782005584328
89,24.659792241524746
90,24.274119698912885
91,24.919003018903003
2,1, 5, 3, 0,11,20.00,30.00,Friday
86,27.17878485889
87,26.630236779163398
88,27.451510836729715
89,24.689769457393074
90,24.30492605541709
91,25.020787421590847
2,1, 5, 3, 0,11,30.00,40.00,Friday
86,27.20964835153555
87,26.667344024878454
88,27.62127803571959
89,24.720020878054187
90,24.336211870949787
91,25.72343861769579
2,1, 5, 3, 0,11,40.00,50.00,Friday
86,27.24122888391426
87,26.708975736713645
88,27.694279072091964
89,24.751611787951906
90,24.36892721302656
91,25.231139815273275
2,1, 5, 3, 0,11,50.00,60.00,Friday
86,27.29675052572647
87,26.78130924941317
88,27.856674157481139
89,24.792102930214094
90,24.41072275398366
91,25.200911221727023
2,1, 5, 3, 0,12, 0.00,10.00,Friday
86,27.356113284769437
87,26.853642132897816
88,28.2844729298709
89,24.832776237033767
90,24.452611906048796
91,26.144100483961397
2,1, 5, 3, 0,12,10.00,20.00,Friday
86,27.41052040494432
87,26.922435936668078
88,28.392431574348604
89,24.8752540271227
90,24.496254968470028
91,25.933715582188893
2,1, 5, 3, 0,12,20.00,30.00,Friday
86,27.468721084127894
87,26.99008910275049
88,28.610817203938443
89,24.922691298088507
90,24.544925884081619
91,27.019281949430736
2,1, 5, 3, 0,12,30.00,40.00,Friday
86,27.514763522162619
87,27.04855787720389
88,28.896265317518407
89,24.96643684616658
90,24.589667089545629
91,26.869544524058786
2,1, 5, 3, 0,12,40.00,50.00,Friday
86,27.61762619402851
87,27.171048628711934
88,29.249743858229747
89,25.026861146016075
90,24.65077682202453
91,27.32207834867409
2,1, 5, 3, 0,12,50.00,60.00,Friday
86,27.70850855283056
87,27.27574144738188
88,29.567256730149329
89,25.0820818891427
90,24.705369023087994
91,27.292976998481245
2,1, 5, 3, 0,13, 0.00,10.00,Friday
86,27.773551939895584
87,27.349077826393918
88,29.862356470769144
89,25.13960089409492
90,24.766968415362748
91,28.323691354360557
2,1, 5, 3, 0,13,10.00,20.00,Friday
86,27.815973484900579
87,27.402787622786737
88,30.034012020420599
89,25.201746603984089
90,24.833858739027876
91,27.33358479200718
2,1, 5, 3, 0,13,20.00,30.00,Friday
86,27.85080761332532
87,27.444368684800396
88,29.98006694157818
89,25.265938977908115
90,24.905923114751489
91,26.894317095521726
2,1, 5, 3, 0,13,30.00,40.00,Friday
86,27.890191703785367
87,27.49213960921551
88,29.98877719864449
89,25.3343465120394
90,24.985013425393775
91,28.257957285254684
2,1, 5, 3, 0,13,40.00,50.00,Friday
86,27.955486679681309
87,27.575434398787978
88,30.052054727227174
89,25.41574678007622
90,25.07436594456313
91,28.018721096430516
2,1, 5, 3, 0,13,50.00,60.00,Friday
86,27.976780298440916
87,27.611247183299974
88,30.10032317676069
89,25.49408766897342
90,25.160352976879144
91,28.694881708209747
2,1, 5, 3, 0,14, 0.00,10.00,Friday
86,28.02319878162533
87,27.677582631147187
88,30.36804858545972
89,25.574683531113914
90,25.249612034966927
91,28.84267014496986
2,1, 5, 3, 0,14,10.00,20.00,Friday
86,28.128051548994028
87,27.8068259498479
88,30.520127436814545
89,25.663386671324646
90,25.348264363224364
91,29.005963827396568
2,1, 5, 3, 0,14,20.00,30.00,Friday
86,28.1969303009592
87,27.892946508067639
88,30.813463326158954
89,25.740736693634557
90,25.435675065759683
91,28.243759032232967
2,1, 5, 3, 0,14,30.00,40.00,Friday
86,28.2704512637783
87,27.990124886249907
88,30.78337502832356
89,25.82363588502435
90,25.53026634217449
91,28.532521074012967
2,1, 5, 3, 0,14,40.00,50.00,Friday
86,28.364516697810605
87,28.10299942790085
88,31.180135627058087
89,25.90443178585315
90,25.62467208871577
91,28.46451036858521
2,1, 5, 3, 0,14,50.00,60.00,Friday
86,28.467678288381096
87,28.229970746795
88,31.24304641089278
89,25.99270502640284
90,25.729720841638004
91,30.198783990803393
2,1, 5, 3, 0,15, 0.00,10.00,Friday
86,28.43740062068345
87,28.225092085956889
88,31.05342327341424
89,26.083256000317744
90,25.840128552219825
91,29.10351859258706
2,1, 5, 3, 0,15,10.00,20.00,Friday
86,28.4828989129879
87,28.301648965361129
88,31.166660130370255
89,26.169813618038007
90,25.947677712442674
91,29.664247315072275
2,1, 5, 3, 0,15,20.00,30.00,Friday
86,28.591610524874008
87,28.450077994724006
88,31.506939974291187
89,26.27127154778726
90,26.079175830519956
91,28.822424257023195
2,1, 5, 3, 0,15,30.00,40.00,Friday
86,28.73309582735597
87,28.63102078799499
88,32.40407491454275
89,26.36759265286371
90,26.201501295638296
91,31.823818646266298
2,1, 5, 3, 0,15,40.00,50.00,Friday
86,28.783871351597825
87,28.716024583094577
88,32.14675333811386
89,26.462470651221414
90,26.317731147759635
91,30.65408676634492
2,1, 5, 3, 0,15,50.00,60.00,Friday
86,28.89475070949046
87,28.89266298813208
88,31.956408448758535
89,26.5852270619879
90,26.46155669528587
91,30.248487857540295
2,1, 5, 3, 0,16, 0.00,10.00,Friday
86,28.983003654566116
87,29.014706273263834
88,32.47777769445116
89,26.669309057925259
90,26.564979095257355
91,30.89339288033014
2,1, 5, 3, 0,16,10.00,20.00,Friday
86,29.1107358597041
87,29.21143290152019
88,32.76358615213708
89,26.798686966714436
90,26.72096616355001
91,31.490095142425198
2,1, 5, 3, 0,16,20.00,30.00,Friday
86,29.108313750122237
87,29.24910353877047
88,32.2456022651643
89,26.87741506834527
90,26.82809799931788
91,30.19396458147729
2,1, 5, 3, 0,16,30.00,40.00,Friday
86,29.137875697605943
87,29.324856344158364
88,32.357903712579147
89,26.970918841361084
90,26.925872462904139
91,30.753749871394665
2,1, 5, 3, 0,16,40.00,50.00,Friday
86,29.19272361654277
87,29.46435180207792
88,32.44310235400671
89,27.114225728929286
90,27.09969726728044
91,31.052815034164813
2,1, 5, 3, 0,16,50.00,60.00,Friday
86,29.190072674758487
87,29.528449844351856
88,32.29932857963176
89,27.22608186547904
90,27.237697438208835
91,30.881632471140699
2,1, 5, 3, 0,17, 0.00,10.00,Friday
86,29.184455788320148
87,29.557528036031554
88,32.37656094727436
89,27.31408331884637
90,27.345025693246329
91,31.877274076927898
2,1, 5, 3, 0,17,10.00,20.00,Friday
86,29.141424153009255
87,29.565951047776627
88,31.09653662423598
89,27.407123786848435
90,27.457047867609288
91,30.598381069011297
2,1, 5, 3, 0,17,20.00,30.00,Friday
86,29.07603549456068
87,29.5828051183221
88,29.902037029211117
89,27.51828891782944
90,27.588552877989654
91,29.33084367866379
2,1, 5, 3, 0,17,30.00,40.00,Friday
86,29.07200185336378
87,29.608226820085954
88,29.551211047443276
89,27.592056398427468
90,27.673736644880397
91,28.979034328795547
2,1, 5, 3, 0,17,40.00,50.00,Friday
86,29.046448285592854
87,29.647972714385256
88,29.371990228131396
89,27.697051952331408
90,27.793081589358878
91,28.51774139006504
2,1, 5, 3, 0,17,50.00,60.00,Friday
86,29.070736307924699
87,29.712028908941208
88,29.85353773931839
89,27.763751243406249
90,27.866747255083295
91,29.113227246081423
2,1, 5, 3, 0,18, 0.00,10.00,Friday
86,29.07538502827396
87,29.730090361487059
88,28.990462906428779
89,27.81504523465791
90,27.92258043123159
91,28.126637254796678
2,1, 5, 3, 0,18,10.00,20.00,Friday
86,29.061509488280686
87,29.732802954641494
88,28.738820826095748
89,27.85893645089519
90,27.969371308236995
91,27.52043129187599
2,1, 5, 3, 0,18,20.00,30.00,Friday
86,29.054233834535773
87,29.74306109449129
88,28.62005477626237
89,27.90109891748145
90,28.01352340962864
91,27.529686476413603
2,1, 5, 3, 0,18,30.00,40.00,Friday
86,29.077463385211734
87,29.76729505370913
88,28.950821218477775
89,27.924972426647558
90,28.03766092035114
91,27.986173631608929
2,1, 5, 3, 0,18,40.00,50.00,Friday
86,29.11514850369285
87,29.80466692077129
88,29.27585872556471
89,27.948623021311396
90,28.06101131567897
91,28.28789048227562
2,1, 5, 3, 0,18,50.00,60.00,Friday
86,29.14516964597045
87,29.826170248687796
88,29.474953827748956
89,27.958736222947253
90,28.069900212741915
91,28.465053443297824
2,1, 5, 3, 0,19, 0.00,10.00,Friday
86,29.154588436937688
87,29.82212940250664
88,29.275412744908679
89,27.961620169915539
90,28.07095017092092
91,28.32247033873087
2,1, 5, 3, 0,19,10.00,20.00,Friday
86,29.156960294427269
87,29.81067066135127
88,29.324055424219187
89,27.963331305140103
90,28.07067695358356
91,28.50554819858337
2,1, 5, 3, 0,19,20.00,30.00,Friday
86,29.148571976600846
87,29.787866011336328
88,29.577435270635858
89,27.96501732318713
90,28.070370565795544
91,28.57837593042787
2,1, 5, 3, 0,19,30.00,40.00,Friday
86,29.131705354113515
87,29.756224754756326
88,29.452733236841483
89,27.966404460062259
90,28.069747201804565
91,28.369002202470918
2,1, 5, 3, 0,19,40.00,50.00,Friday
86,29.11102165415071
87,29.72202495238377
88,29.49060408738219
89,27.96758363094997
90,28.068853799148369
91,28.369782685628136
2,1, 5, 3, 0,19,50.00,60.00,Friday
86,29.08839891113834
87,29.684937706226468
88,29.29338631406053
89,27.968549677230145
90,28.06764800755853
91,28.27900402778938
2,1, 5, 3, 0,20, 0.00,10.00,Friday
86,29.068221683439345
87,29.65069234150012
88,29.210678228432085
89,27.968934321283695
90,28.06574210896705
91,28.202109054743226
2,1, 5, 3, 0,20,10.00,20.00,Friday
86,29.046599544466689
87,29.616353268520766
88,29.289338958299824
89,27.96828899037078
90,28.062668457153728
91,28.215604537494309
2,1, 5, 3, 0,20,20.00,30.00,Friday
86,29.017150135665696
87,29.574289525045026
88,29.084029749547367
89,27.966340264250634
90,28.05815653474198
91,28.008260537577529
2,1, 5, 3, 0,20,30.00,40.00,Friday
86,28.990226045443067
87,29.534536622107767
88,28.97172681811441
89,27.96291343288157
90,28.05211285191432
91,28.038546980088019
2,1, 5, 3, 0,20,40.00,50.00,Friday
86,28.97434120917903
87,29.507462298186707
88,28.593756495562795
89,27.958523348895569
90,28.04605071212781
91,27.58858496107797
2,1, 5, 3, 0,20,50.00,60.00,Friday
86,28.934641696620326
87,29.445445366691524
88,28.118802273552189
89,27.950761003377758
90,28.035898619849406
91,27.27467673877223
2,1, 5, 3, 0,21, 0.00,10.00,Friday
86,28.89729864464731
87,29.387793846564578
88,27.69902286821943
89,27.942017409626648
90,28.019040110102777
91,26.961548919723187
2,1, 5, 3, 0,21,10.00,20.00,Friday
86,28.882180026915884
87,29.351975707716368
88,27.914784834699675
89,27.93165929796688
90,27.996979339100393
91,27.29970363435379
2,1, 5, 3, 0,21,20.00,30.00,Friday
86,28.87593726207513
87,29.331745035933876
88,28.660178632948438
89,27.914737419459898
90,27.974817294368493
91,27.409065111878549
2,1, 5, 3, 0,21,30.00,40.00,Friday
86,28.866224011904558
87,29.305125106742559
88,28.85723413601439
89,27.894794916209439
90,27.948238233480866
91,27.438767226368733
2,1, 5, 3, 0,21,40.00,50.00,Friday
86,28.855703214958095
87,29.27249767843159
88,28.73037935252907
89,27.868769569513146
90,27.91407797546758
91,27.932188627127638
2,1, 5, 3, 0,21,50.00,60.00,Friday
86,28.829215632373356
87,29.213647229754053
88,28.461678533169409
89,27.837913138732089
90,27.87401743409579
91,27.801344777507024
2,1, 5, 3, 0,22, 0.00,10.00,Friday
86,28.816417574233954
87,29.18058697320768
88,28.221461930471006
89,27.811115427690884
90,27.838349823293997
91,27.375860609677159
2,1, 5, 3, 0,22,10.00,20.00,Friday
86,28.783487336012258
87,29.106566197530446
88,27.81487991253039
89,27.775565921283936
90,27.799040424084429
91,27.006892566366039
2,1, 5, 3, 0,22,20.00,30.00,Friday
86,28.737701531177608
87,29.032995473161149
88,27.374934650003824
89,27.750772827513573
90,27.770671079787996
91,26.630090897852669
2,1, 5, 3, 0,22,30.00,40.00,Friday
86,28.702814334543704
87,28.975680906987845
88,27.601466359544959
89,27.723274997517103
90,27.737143729047476
91,27.384030059601505
2,1, 5, 3, 0,22,40.00,50.00,Friday
86,28.685277765518458
87,28.937138311137674
88,27.777956987279408
89,27.6948904224401
90,27.703860651898677
91,27.486879445832437
2,1, 5, 3, 0,22,50.00,60.00,Friday
86,28.68222386546858
87,28.920110608145966
88,28.307862733960009
89,27.6671471788881
90,27.671904652776904
91,26.793243389201949
2,1, 5, 3, 0,23, 0.00,10.00,Friday
86,28.657972358950663
87,28.874483423746836
88,28.15230597080593
89,27.636450783470658
90,27.636873945603747
91,27.063153717695714
2,1, 5, 3, 0,23,10.00,20.00,Friday
86,28.65055776818246
87,28.851067439894249
88,27.94134036017212
89,27.60678415076417
90,27.60277933668963
91,27.58949574668032
2,1, 5, 3, 0,23,20.00,30.00,Friday
86,28.630272136521577
87,28.8007791701247
88,28.012359200435069
89,27.570868199819928
90,27.56187920674479
91,27.256094854556794
2,1, 5, 3, 0,23,30.00,40.00,Friday
86,28.59730208389532
87,28.755524290840979
88,27.347527812471417
89,27.543701937371716
90,27.529976038433519
91,26.64510999760934
2,1, 5, 3, 0,23,40.00,50.00,Friday
86,28.561237410222455
87,28.700415549974179
88,27.1974599964408
89,27.5116633563102
90,27.49295415714787
91,26.835273348959757
2,1, 5, 3, 0,23,50.00,60.00,Friday
86,28.557269206251765
87,28.680301884670209
88,27.485177123410126
89,27.48075027615178
90,27.457051847010399
91,27.253501022206927
2,1, 5, 3, 0,24, 0.00,10.00,Friday
86,28.539696662305454
87,28.633551307772284
88,27.742207697132387
89,27.444131396936059
90,27.415703529293624
91,27.090032788978886
2,1, 5, 3, 0,24,10.00,20.00,Friday
86,28.519851910969476
87,28.590137520140347
88,27.608210300702475
89,27.411710570719888
90,27.378136582259793
91,27.03476814818969
2,1, 5, 3, 0,24,20.00,30.00,Friday
86,28.508325001259096
87,28.570756372217106
88,27.257593903823858
89,27.384404537390837
90,27.34557284825366
91,26.519714625659974
2,1, 5, 3, 0,24,30.00,40.00,Friday
86,28.49191859718705
87,28.53732461723269
88,27.003984489505929
89,27.35181603319104
90,27.307541347953174
91,26.351424842202304
2,1, 5, 3, 0,24,40.00,50.00,Friday
86,28.485817457687998
87,28.516404375099304
88,27.72937249586242
89,27.32050914010607
90,27.270552324548914
91,26.75172244569524
2,1, 5, 3, 0,24,50.00,60.00,Friday
86,28.47033310073095
87,28.482677833765469
88,27.68305435401017
89,27.290225331419163
90,27.235007628453354
91,26.811662607411504
2,2, 5, 4, 0, 1, 0.00,10.00,Saturday
86,28.44772802047826
87,28.449445502075176
88,27.191089280162389
89,27.262400225619574
90,27.20165961757661
91,26.421504932602795
2,2, 5, 4, 0, 1,10.00,20.00,Saturday
86,28.397650514039147
87,28.37669148580623
88,26.726150180550776
89,27.230043641358749
90,27.1636325752098
91,26.087615431462603
2,2, 5, 4, 0, 1,20.00,30.00,Saturday
86,28.353036071561083
87,28.31287773448901
88,26.474252182729037
89,27.20189102331275
90,27.129800172376986
91,25.892636666887616
2,2, 5, 4, 0, 1,30.00,40.00,Saturday
86,28.316157085055968
87,28.261444629869197
88,26.489487376957095
89,27.174073715834955
90,27.096035245781836
91,25.919248240767997
2,2, 5, 4, 0, 1,40.00,50.00,Saturday
86,28.291508331217029
87,28.22446700872979
88,26.575891869756206
89,27.14555868725461
90,27.061447596319515
91,26.037636700395525
2,2, 5, 4, 0, 1,50.00,60.00,Saturday
86,28.272577853148026
87,28.193945003195578
88,26.63871335660478
89,27.116705432986604
90,27.026340118674967
91,26.152784524509685
2,2, 5, 4, 0, 2, 0.00,10.00,Saturday
86,28.26446416696549
87,28.18024619894482
88,26.862921564150388
89,27.090699615093948
90,26.994938881999916
91,26.719047095742185
2,2, 5, 4, 0, 2,10.00,20.00,Saturday
86,28.241240819484056
87,28.14229897901643
88,27.302320305290026
89,27.05573589050052
90,26.9547442565364
91,26.268148209678559
2,2, 5, 4, 0, 2,20.00,30.00,Saturday
86,28.218664582419284
87,28.106273435069928
88,27.513317893769128
89,27.02382580491073
90,26.91762154034475
91,26.230497874707184
2,2, 5, 4, 0, 2,30.00,40.00,Saturday
86,28.19090727886435
87,28.068421762045089
88,27.27655129756488
89,26.992236233969189
90,26.880911103992696
91,26.178445544175025
2,2, 5, 4, 0, 2,40.00,50.00,Saturday
86,28.163264976252955
87,28.03256800223225
88,27.069635481651479
89,26.96098881963336
90,26.844874685561949
91,26.2251129054176
2,2, 5, 4, 0, 2,50.00,60.00,Saturday
86,28.136633358625866
87,27.996294165175216
88,27.114413117757253
89,26.93014983468372
90,26.808897666728073
91,26.061521778051227
2,2, 5, 4, 0, 3, 0.00,10.00,Saturday
86,28.111993336608199
87,27.96664028768425
88,26.748196369792166
89,26.90364090607695
90,26.77752476075743
91,26.512372224935438
2,2, 5, 4, 0, 3,10.00,20.00,Saturday
86,28.055593852300217
87,27.894944280688106
88,26.37786444422069
89,26.869712929263679
90,26.737767260306293
91,26.394215621084347
2,2, 5, 4, 0, 3,20.00,30.00,Saturday
86,28.002333491486725
87,27.827044509609264
88,26.053248614882429
89,26.839904054220868
90,26.702606605049099
91,25.692334475715286
2,2, 5, 4, 0, 3,30.00,40.00,Saturday
86,27.95728986632858
87,27.76918467071212
88,25.95890677605135
89,26.808464206160435
90,26.665742181331458
91,25.88269967026703
2,2, 5, 4, 0, 3,40.00,50.00,Saturday
86,27.93881815040168
87,27.746031955103935
88,25.99302308777541
89,26.777665681665689
90,26.629858887465248
91,26.084207683523208
2,2, 5, 4, 0, 3,50.00,60.00,Saturday
86,27.87565847287934
87,27.669491531372608
88,25.730481463380856
89,26.73984457808554
90,26.58638159024342
91,25.896718563000204
2,2, 5, 4, 0, 4, 0.00,10.00,Saturday
86,27.808893976545819
87,27.591536367701449
88,25.333764152760364
89,26.704459379027477
90,26.5458378307178
91,25.60767940533551
2,2, 5, 4, 0, 4,10.00,20.00,Saturday
86,27.771044896810584
87,27.548368778595955
88,24.958861468868787
89,26.66838962673526
90,26.5047935879217
91,24.699170739896393
2,2, 5, 4, 0, 4,20.00,30.00,Saturday
86,27.71608226434227
87,27.48339828718518
88,24.807868658094497
89,26.62618038354935
90,26.457223442678474
91,24.954169159451767
2,2, 5, 4, 0, 4,30.00,40.00,Saturday
86,27.685150829395814
87,27.44354313702949
88,25.242467584210254
89,26.583028359837987
90,26.408910225286506
91,24.5088342646929
2,2, 5, 4, 0, 4,40.00,50.00,Saturday
86,27.619187948985254
87,27.361391392188513
88,24.803956447699897
89,26.53186380317881
90,26.35228895748165
91,24.798026965716589
2,2, 5, 4, 0, 4,50.00,60.00,Saturday
86,27.58519591542332
87,27.31590343934278
88,24.7008081209531
89,26.482828238895423
90,26.298067503511729
91,25.714164673979377
2,2, 5, 4, 0, 5, 0.00,10.00,Saturday
86,27.553233669466488
87,27.276670730679933
88,24.913520726688007
89,26.432348922716785
90,26.242485736696908
91,24.32752117662379
2,2, 5, 4, 0, 5,10.00,20.00,Saturday
86,27.515960724889106
87,27.232418954611846
88,24.527634343589008
89,26.381781966520778
90,26.186885636162665
91,25.139175225572683
2,2, 5, 4, 0, 5,20.00,30.00,Saturday
86,27.465428217908355
87,27.165779751510969
88,24.496790960536154
89,26.318563018036245
90,26.11785662146889
91,25.386272350674369
2,2, 5, 4, 0, 5,30.00,40.00,Saturday
86,27.42799483961942
87,27.113966466412113
88,24.476993225123747
89,26.26097088506793
90,26.054877622357269
91,25.340229032940785
2,2, 5, 4, 0, 5,40.00,50.00,Saturday
86,27.396868105462738
87,27.076361771538357
88,24.4275522969967
89,26.20611252840103
90,25.994840398823557
91,24.87855431464616
2,2, 5, 4, 0, 5,50.00,60.00,Saturday
86,27.345305712299763
87,27.01423867224221
88,24.2257345710703
89,26.148933081090428
90,25.932497377018085
91,24.950434624210137
2,2, 5, 4, 0, 6, 0.00,10.00,Saturday
86,27.312322566690136
87,26.972088716326679
88,24.070973505226254
89,26.091361788710438
90,25.869693106024138
91,24.369910338545738