Program Version,EnergyPlus, Version 9.5.0-de239b2e5f, YMD=2021.12.09 18:55
1,5,Environment Title[],Latitude[deg],Longitude[deg],Time Zone[],Elevation[m]
2,8,Day of Simulation[],Month[],Day of Month[],DST Indicator[1=yes 0=no],Hour[],StartMinute[],EndMinute[],DayType
3,5,Cumulative Day of Simulation[],Month[],Day of Month[],DST Indicator[1=yes 0=no],DayType  ! When Daily Report Variables Requested
4,2,Cumulative Days of Simulation[],Month[]  ! When Monthly Report Variables Requested
5,1,Cumulative Days of Simulation[] ! When Run Period Report Variables Requested
6,1,Calendar Year of Simulation[] ! When Annual Report Variables Requested
533,1,JORGE,Zone Thermal Comfort Fanger Model PMV [] !TimeStep
534,1,JORGE,Zone Thermal Comfort Fanger Model PPD [%] !TimeStep
535,1,JORGE&OTRO,Zone Thermal Comfort Fanger Model PMV [] !TimeStep
536,1,JORGE&OTRO,Zone Thermal Comfort Fanger Model PPD [%] !TimeStep
End of Data Dictionary
1,RUN PERIOD 1,  18.85, -99.14,  -6.00,1280.00
2,1, 5, 3, 0, 1, 0.00,10.00,Friday
533,-1.3553028279575488
534,43.14535612139756
535,-1.3553028279575488
536,43.14535612139756
2,1, 5, 3, 0, 1,10.00,20.00,Friday
533,-1.4429032603911092
534,47.81074732790362
535,-1.4429032603911092
536,47.81074732790362
2,1, 5, 3, 0, 1,20.00,30.00,Friday
533,-1.2836653411173527
534,39.43118278582098
535,-1.2836653411173527
536,39.43118278582098
2,1, 5, 3, 0, 1,30.00,40.00,Friday
533,-1.2941532273613726
534,39.96804089754297
535,-1.2941532273613726
536,39.96804089754297
2,1, 5, 3, 0, 1,40.00,50.00,Friday
533,-1.3373027498159862
534,42.20222691104525
535,-1.3373027498159862
536,42.20222691104525
2,1, 5, 3, 0, 1,50.00,60.00,Friday
533,-1.4271581785973849
534,46.96436361508022
535,-1.4271581785973849
536,46.96436361508022
2,1, 5, 3, 0, 2, 0.00,10.00,Friday
533,-1.5697284710385229
534,54.696579012833499
535,-1.5697284710385229
536,54.696579012833499
2,1, 5, 3, 0, 2,10.00,20.00,Friday
533,-1.4695689988246588
534,49.25016164254782
535,-1.4695689988246588
536,49.25016164254782
2,1, 5, 3, 0, 2,20.00,30.00,Friday
533,-1.3960887447418889
534,45.30345935445925
535,-1.3960887447418889
536,45.30345935445925
2,1, 5, 3, 0, 2,30.00,40.00,Friday
533,-1.3600568271498109
534,43.39544884831
535,-1.3600568271498109
536,43.39544884831
2,1, 5, 3, 0, 2,40.00,50.00,Friday
533,-1.4618444811597973
534,48.83249325955091
535,-1.4618444811597973
536,48.83249325955091
2,1, 5, 3, 0, 2,50.00,60.00,Friday
533,-1.538903144679822
534,53.01686058643298
535,-1.538903144679822
536,53.01686058643298
2,1, 5, 3, 0, 3, 0.00,10.00,Friday
533,-1.5626507368101697
534,54.31087446586687
535,-1.5626507368101697
536,54.31087446586687
2,1, 5, 3, 0, 3,10.00,20.00,Friday
533,-1.5799751965204998
534,55.25489126622662
535,-1.5799751965204998
536,55.25489126622662
2,1, 5, 3, 0, 3,20.00,30.00,Friday
533,-1.7164392541598568
534,62.62988125167551
535,-1.7164392541598568
536,62.62988125167551
2,1, 5, 3, 0, 3,30.00,40.00,Friday
533,-1.713894113652973
534,62.49417707883874
535,-1.713894113652973
536,62.49417707883874
2,1, 5, 3, 0, 3,40.00,50.00,Friday
533,-1.8805550443580979
534,71.09758236166714
535,-1.8805550443580979
536,71.09758236166714
2,1, 5, 3, 0, 3,50.00,60.00,Friday
533,-1.8747355195254159
534,70.8091866570733
535,-1.8747355195254159
536,70.8091866570733
2,1, 5, 3, 0, 4, 0.00,10.00,Friday
533,-2.020753634817051
534,77.69084029122182
535,-2.020753634817051
536,77.69084029122182
2,1, 5, 3, 0, 4,10.00,20.00,Friday
533,-2.108765476318967
534,81.42440650145559
535,-2.108765476318967
536,81.42440650145559
2,1, 5, 3, 0, 4,20.00,30.00,Friday
533,-2.1531621519308978
534,83.17287132226399
535,-2.1531621519308978
536,83.17287132226399
2,1, 5, 3, 0, 4,30.00,40.00,Friday
533,-2.2666117475566387
534,87.20042766130784
535,-2.2666117475566387
536,87.20042766130784
2,1, 5, 3, 0, 4,40.00,50.00,Friday
533,-2.3534669030699115
534,89.8413558763774
535,-2.3534669030699115
536,89.8413558763774
2,1, 5, 3, 0, 4,50.00,60.00,Friday
533,-2.4522648649803537
534,92.37865159376652
535,-2.4522648649803537
536,92.37865159376652
2,1, 5, 3, 0, 5, 0.00,10.00,Friday
533,-2.5147443874112858
534,93.73516812122129
535,-2.5147443874112858
536,93.73516812122129
2,1, 5, 3, 0, 5,10.00,20.00,Friday
533,-2.610791832834572
534,95.46973409556596
535,-2.610791832834572
536,95.46973409556596
2,1, 5, 3, 0, 5,20.00,30.00,Friday
533,-2.5191913251264865
534,93.82466106937987
535,-2.5191913251264865
536,93.82466106937987
2,1, 5, 3, 0, 5,30.00,40.00,Friday
533,-2.542002350100551
534,94.26936752244977
535,-2.542002350100551
536,94.26936752244977
2,1, 5, 3, 0, 5,40.00,50.00,Friday
533,-2.5368572692587909
534,94.17114660804899
535,-2.5368572692587909
536,94.17114660804899
2,1, 5, 3, 0, 5,50.00,60.00,Friday
533,-2.4787025151104937
534,92.97548979655488
535,-2.4787025151104937
536,92.97548979655488
2,1, 5, 3, 0, 6, 0.00,10.00,Friday
533,-2.4552472691560949
534,92.44768199810956
535,-2.4552472691560949
536,92.44768199810956
2,1, 5, 3, 0, 6,10.00,20.00,Friday
533,-2.6256413273418985
534,95.70225162499287
535,-2.6256413273418985
536,95.70225162499287
2,1, 5, 3, 0, 6,20.00,30.00,Friday
533,-2.7604301471471057
534,97.42307178421837
535,-2.7604301471471057
536,97.42307178421837
2,1, 5, 3, 0, 6,30.00,40.00,Friday
533,-2.938003584426076
534,98.80910686687858
535,-2.938003584426076
536,98.80910686687858
2,1, 5, 3, 0, 6,40.00,50.00,Friday
533,-2.9305998577086087
534,98.76723600310224
535,-2.9305998577086087
536,98.76723600310224
2,1, 5, 3, 0, 6,50.00,60.00,Friday
533,-2.9198248977978356
534,98.70414894589054
535,-2.9198248977978356
536,98.70414894589054
2,1, 5, 3, 0, 7, 0.00,10.00,Friday
533,-2.9679858876126805
534,98.9668968331942
535,-2.9679858876126805
536,98.9668968331942
2,1, 5, 3, 0, 7,10.00,20.00,Friday
533,-2.9889487859402319
534,99.06661064677232
535,-2.9889487859402319
536,99.06661064677232
2,1, 5, 3, 0, 7,20.00,30.00,Friday
533,-2.810742122594756
534,97.90478377026253
535,-2.810742122594756
536,97.90478377026253
2,1, 5, 3, 0, 7,30.00,40.00,Friday
533,-2.7680853063976667
534,97.50150151041365
535,-2.7680853063976667
536,97.50150151041365
2,1, 5, 3, 0, 7,40.00,50.00,Friday
533,-2.793266524217501
534,97.7463317600464
535,-2.793266524217501
536,97.7463317600464
2,1, 5, 3, 0, 7,50.00,60.00,Friday
533,-2.8801369088847745
534,98.44861074306458
535,-2.8801369088847745
536,98.44861074306458
2,1, 5, 3, 0, 8, 0.00,10.00,Friday
533,-3.0487131207058995
534,99.30795400335103
535,-3.0487131207058995
536,99.30795400335103
2,1, 5, 3, 0, 8,10.00,20.00,Friday
533,-3.129419355278463
534,99.54881262043335
535,-3.129419355278463
536,99.54881262043335
2,1, 5, 3, 0, 8,20.00,30.00,Friday
533,-2.9831378994900299
534,99.03980676560339
535,-2.9831378994900299
536,99.03980676560339
2,1, 5, 3, 0, 8,30.00,40.00,Friday
533,-2.7396711003205884
534,97.20065918810065
535,-2.7396711003205884
536,97.20065918810065
2,1, 5, 3, 0, 8,40.00,50.00,Friday
533,-2.593813948144463
534,95.19256492125322
535,-2.593813948144463
536,95.19256492125322
2,1, 5, 3, 0, 8,50.00,60.00,Friday
533,-2.485140231433612
534,93.11571122612637
535,-2.485140231433612
536,93.11571122612637
2,1, 5, 3, 0, 9, 0.00,10.00,Friday
533,-2.3627291196113826
534,90.10017053242652
535,-2.3627291196113826
536,90.10017053242652
2,1, 5, 3, 0, 9,10.00,20.00,Friday
533,-2.267938092463393
534,87.24366610457479
535,-2.267938092463393
536,87.24366610457479
2,1, 5, 3, 0, 9,20.00,30.00,Friday
533,-2.220119509903148
534,85.6281259250827
535,-2.220119509903148
536,85.6281259250827
2,1, 5, 3, 0, 9,30.00,40.00,Friday
533,-2.1591037365297627
534,83.3996846597413
535,-2.1591037365297627
536,83.3996846597413
2,1, 5, 3, 0, 9,40.00,50.00,Friday
533,-2.0858072493040327
534,80.48391835063672
535,-2.0858072493040327
536,80.48391835063672
2,1, 5, 3, 0, 9,50.00,60.00,Friday
533,-2.035653218365539
534,78.34676311731806
535,-2.035653218365539
536,78.34676311731806
2,1, 5, 3, 0,10, 0.00,10.00,Friday
533,-0.058612599010677449
534,5.071126213639644
535,-0.058612599010677449
536,5.071126213639644
2,1, 5, 3, 0,10,10.00,20.00,Friday
533,0.06634821950556587
534,5.091143363275336
535,0.06634821950556587
536,5.091143363275336
2,1, 5, 3, 0,10,20.00,30.00,Friday
533,0.30480388749110229
534,6.930791719836961
535,0.30480388749110229
536,6.930791719836961
2,1, 5, 3, 0,10,30.00,40.00,Friday
533,0.3294702692478679
534,7.257335358757317
535,0.3294702692478679
536,7.257335358757317
2,1, 5, 3, 0,10,40.00,50.00,Friday
533,0.24306164483108509
534,6.226101006388362
535,0.24306164483108509
536,6.226101006388362
2,1, 5, 3, 0,10,50.00,60.00,Friday
533,0.28580384380772386
534,6.69681327305598
535,0.28580384380772386
536,6.69681327305598
2,1, 5, 3, 0,11, 0.00,10.00,Friday
533,0.3867675868785567
534,8.115613877740117
535,0.3867675868785567
536,8.115613877740117
2,1, 5, 3, 0,11,10.00,20.00,Friday
533,0.44524766661940837
534,9.136223006467987
535,0.44524766661940837
536,9.136223006467987
2,1, 5, 3, 0,11,20.00,30.00,Friday
533,0.47480356113987379
534,9.707917041769747
535,0.47480356113987379
536,9.707917041769747
2,1, 5, 3, 0,11,30.00,40.00,Friday
533,0.6020855607167828
534,12.601301684047826
535,0.6020855607167828
536,12.601301684047826
2,1, 5, 3, 0,11,40.00,50.00,Friday
533,0.6112499379685243
534,12.836732223150193
535,0.6112499379685243
536,12.836732223150193
2,1, 5, 3, 0,11,50.00,60.00,Friday
533,0.6340750083819025
534,13.43894586029404
535,0.6340750083819025
536,13.43894586029404
2,1, 5, 3, 0,12, 0.00,10.00,Friday
533,0.7119706602454822
534,15.664122400305758
535,0.7119706602454822
536,15.664122400305758
2,1, 5, 3, 0,12,10.00,20.00,Friday
533,0.7507977683918851
534,16.87105641653646
535,0.7507977683918851
536,16.87105641653646
2,1, 5, 3, 0,12,20.00,30.00,Friday
533,0.8973454778488537
534,22.00249213678704
535,0.8973454778488537
536,22.00249213678704
2,1, 5, 3, 0,12,30.00,40.00,Friday
533,0.9444507564016179
534,23.840104088359639
535,0.9444507564016179
536,23.840104088359639
2,1, 5, 3, 0,12,40.00,50.00,Friday
533,1.0320217569729127
534,27.48721500061457
535,1.0320217569729127
536,27.48721500061457
2,1, 5, 3, 0,12,50.00,60.00,Friday
533,1.139670714606816
534,32.35373185447014
535,1.139670714606816
536,32.35373185447014
2,1, 5, 3, 0,13, 0.00,10.00,Friday
533,1.2417049208647795
534,37.30993832957008
535,1.2417049208647795
536,37.30993832957008
2,1, 5, 3, 0,13,10.00,20.00,Friday
533,1.2777675469186579
534,39.130414405863849
535,1.2777675469186579
536,39.130414405863849
2,1, 5, 3, 0,13,20.00,30.00,Friday
533,1.286358067405232
534,39.568775734071277
535,1.286358067405232
536,39.568775734071277
2,1, 5, 3, 0,13,30.00,40.00,Friday
533,1.3451773659765425
534,42.61406941507601
535,1.3451773659765425
536,42.61406941507601
2,1, 5, 3, 0,13,40.00,50.00,Friday
533,1.4015189220785243
534,45.59277791152371
535,1.4015189220785243
536,45.59277791152371
2,1, 5, 3, 0,13,50.00,60.00,Friday
533,1.4579001537874934
534,48.61943138378311
535,1.4579001537874934
536,48.61943138378311
2,1, 5, 3, 0,14, 0.00,10.00,Friday
533,1.5399813447650595
534,53.07559628319278
535,1.5399813447650595
536,53.07559628319278
2,1, 5, 3, 0,14,10.00,20.00,Friday
533,1.6495640650703923
534,59.03592193025542
535,1.6495640650703923
536,59.03592193025542
2,1, 5, 3, 0,14,20.00,30.00,Friday
533,1.6643160689453589
534,59.83312890406032
535,1.6643160689453589
536,59.83312890406032
2,1, 5, 3, 0,14,30.00,40.00,Friday
533,1.694974124000442
534,61.48241091906008
535,1.694974124000442
536,61.48241091906008
2,1, 5, 3, 0,14,40.00,50.00,Friday
533,1.8098334098690284
534,67.52707252713766
535,1.8098334098690284
536,67.52707252713766
2,1, 5, 3, 0,14,50.00,60.00,Friday
533,1.9044438670184832
534,72.27026625924806
535,1.9044438670184832
536,72.27026625924806
2,1, 5, 3, 0,15, 0.00,10.00,Friday
533,1.8553314832326764
534,69.84023986713001
535,1.8553314832326764
536,69.84023986713001
2,1, 5, 3, 0,15,10.00,20.00,Friday
533,1.91068237911557
534,72.57345687520952
535,1.91068237911557
536,72.57345687520952
2,1, 5, 3, 0,15,20.00,30.00,Friday
533,1.9704424265608103
534,75.40884425688485
535,1.9704424265608103
536,75.40884425688485
2,1, 5, 3, 0,15,30.00,40.00,Friday
533,2.051596533307094
534,79.03813504542052
535,2.051596533307094
536,79.03813504542052
2,1, 5, 3, 0,15,40.00,50.00,Friday
533,1.952110126253006
534,74.55280318862364
535,1.952110126253006
536,74.55280318862364
2,1, 5, 3, 0,15,50.00,60.00,Friday
533,1.9909368489718403
534,76.3506191876191
535,1.9909368489718403
536,76.3506191876191
2,1, 5, 3, 0,16, 0.00,10.00,Friday
533,2.1103305055834644
534,81.48762901824101
535,2.1103305055834644
536,81.48762901824101
2,1, 5, 3, 0,16,10.00,20.00,Friday
533,2.1166395515380724
534,81.74133255625249
535,2.1166395515380724
536,81.74133255625249
2,1, 5, 3, 0,16,20.00,30.00,Friday
533,2.0608222189624736
534,79.43314904789588
535,2.0608222189624736
536,79.43314904789588
2,1, 5, 3, 0,16,30.00,40.00,Friday
533,2.0876404684639899
534,80.55990657432992
535,2.0876404684639899
536,80.55990657432992
2,1, 5, 3, 0,16,40.00,50.00,Friday
533,2.106376011236059
534,81.32765875270234
535,2.106376011236059
536,81.32765875270234
2,1, 5, 3, 0,16,50.00,60.00,Friday
533,2.0332825825687097
534,78.24302936772398
535,2.0332825825687097
536,78.24302936772398
2,1, 5, 3, 0,17, 0.00,10.00,Friday
533,1.965442474378608
534,75.17662225879983
535,1.965442474378608
536,75.17662225879983
2,1, 5, 3, 0,17,10.00,20.00,Friday
533,1.584576421302147
534,55.50553951517364
535,1.584576421302147
536,55.50553951517364
2,1, 5, 3, 0,17,20.00,30.00,Friday
533,1.2419689543198063
534,37.32314643176004
535,1.2419689543198063
536,37.32314643176004
2,1, 5, 3, 0,17,30.00,40.00,Friday
533,1.1546941280516268
534,33.0638473966556
535,1.1546941280516268
536,33.0638473966556
2,1, 5, 3, 0,17,40.00,50.00,Friday
533,1.1269627265768583
534,31.75871589661054
535,1.1269627265768583
536,31.75871589661054
2,1, 5, 3, 0,17,50.00,60.00,Friday
533,1.2915786010834983
534,39.83601489082729
535,1.2915786010834983
536,39.83601489082729
2,1, 5, 3, 0,18, 0.00,10.00,Friday
533,1.1058631002506623
534,30.782519894028355
535,1.1058631002506623
536,30.782519894028355
2,1, 5, 3, 0,18,10.00,20.00,Friday
533,1.1154718452642394
534,31.225240581004699
535,1.1154718452642394
536,31.225240581004699
2,1, 5, 3, 0,18,20.00,30.00,Friday
533,1.1183924210461332
534,31.360416995901987
535,1.1183924210461332
536,31.360416995901987
2,1, 5, 3, 0,18,30.00,40.00,Friday
533,1.1790076056388903
534,34.22799819607343
535,1.1790076056388903
536,34.22799819607343
2,1, 5, 3, 0,18,40.00,50.00,Friday
533,1.2618088992865482
534,38.320784154428817
535,1.2618088992865482
536,38.320784154428817
2,1, 5, 3, 0,18,50.00,60.00,Friday
533,1.3302931992351966
534,41.8366481370807
535,1.3302931992351966
536,41.8366481370807
2,1, 5, 3, 0,19, 0.00,10.00,Friday
533,0.308632180319088
534,6.979783040514107
535,0.308632180319088
536,6.979783040514107
2,1, 5, 3, 0,19,10.00,20.00,Friday
533,0.22430025113763053
534,6.04374124315143
535,0.22430025113763053
536,6.04374124315143
2,1, 5, 3, 0,19,20.00,30.00,Friday
533,0.2670436368622282
534,6.480738016077083
535,0.2670436368622282
536,6.480738016077083
2,1, 5, 3, 0,19,30.00,40.00,Friday
533,0.24808308573490218
534,6.27741613330511
535,0.24808308573490218
536,6.27741613330511
2,1, 5, 3, 0,19,40.00,50.00,Friday
533,0.25429158728527537
534,6.342327250935497
535,0.25429158728527537
536,6.342327250935497
2,1, 5, 3, 0,19,50.00,60.00,Friday
533,0.1694763038230498
534,5.595318952265998
535,0.1694763038230498
536,5.595318952265998
2,1, 5, 3, 0,20, 0.00,10.00,Friday
533,0.128659268240387
534,5.3429121000485229
535,0.128659268240387
536,5.3429121000485229
2,1, 5, 3, 0,20,10.00,20.00,Friday
533,0.13575087561639147
534,5.381787552304715
535,0.13575087561639147
536,5.381787552304715
2,1, 5, 3, 0,20,20.00,30.00,Friday
533,0.07111175823961108
534,5.10470370338146
535,0.07111175823961108
536,5.10470370338146
2,1, 5, 3, 0,20,30.00,40.00,Friday
533,0.02776759191805501
534,5.015961448812149
535,0.02776759191805501
536,5.015961448812149
2,1, 5, 3, 0,20,40.00,50.00,Friday
533,-0.09978205166578368
534,5.206195327062318
535,-0.09978205166578368
536,5.206195327062318
2,1, 5, 3, 0,20,50.00,60.00,Friday
533,-0.28180084834823956
534,6.649462242427745
535,-0.28180084834823956
536,6.649462242427745
2,1, 5, 3, 0,21, 0.00,10.00,Friday
533,-0.46006987109348648
534,9.418224420827685
535,-0.46006987109348648
536,9.418224420827685
2,1, 5, 3, 0,21,10.00,20.00,Friday
533,-0.44818012282763339
534,9.191264776753727
535,-0.44818012282763339
536,9.191264776753727
2,1, 5, 3, 0,21,20.00,30.00,Friday
533,-0.25706718335771908
534,6.371870957246216
535,-0.25706718335771908
536,6.371870957246216
2,1, 5, 3, 0,21,30.00,40.00,Friday
533,-0.09577293597958209
534,5.189952248237631
535,-0.09577293597958209
536,5.189952248237631
2,1, 5, 3, 0,21,40.00,50.00,Friday
533,-0.15197858487529915
534,5.4786192324617819
535,-0.15197858487529915
536,5.4786192324617819
2,1, 5, 3, 0,21,50.00,60.00,Friday
533,-0.28768767847245527
534,6.719330978044212
535,-0.28768767847245527
536,6.719330978044212
2,1, 5, 3, 0,22, 0.00,10.00,Friday
533,-0.4012206918873527
534,8.354224278040136
535,-0.4012206918873527
536,8.354224278040136
2,1, 5, 3, 0,22,10.00,20.00,Friday
533,-0.5310329106944739
534,10.899619011430602
535,-0.5310329106944739
536,10.899619011430602
2,1, 5, 3, 0,22,20.00,30.00,Friday
533,-0.6846580374051984
534,14.854021095430824
535,-0.6846580374051984
536,14.854021095430824
2,1, 5, 3, 0,22,30.00,40.00,Friday
533,-0.6892135247319878
534,14.986899474700209
535,-0.6892135247319878
536,14.986899474700209
2,1, 5, 3, 0,22,40.00,50.00,Friday
533,-0.6510895023459487
534,13.902556848051973
535,-0.6510895023459487
536,13.902556848051973
2,1, 5, 3, 0,22,50.00,60.00,Friday
533,-0.5190487115637801
534,10.634167948799103
535,-0.5190487115637801
536,10.634167948799103
2,1, 5, 3, 0,23, 0.00,10.00,Friday
533,-0.6145648658623775
534,12.92278957870802
535,-0.6145648658623775
536,12.92278957870802
2,1, 5, 3, 0,23,10.00,20.00,Friday
533,-0.6574944445599074
534,14.080330388632462
535,-0.6574944445599074
536,14.080330388632462
2,1, 5, 3, 0,23,20.00,30.00,Friday
533,-0.6196113760713167
534,13.054715381386047
535,-0.6196113760713167
536,13.054715381386047
2,1, 5, 3, 0,23,30.00,40.00,Friday
533,-0.8009928521204863
534,18.526946374394357
535,-0.8009928521204863
536,18.526946374394357
2,1, 5, 3, 0,23,40.00,50.00,Friday
533,-0.896172455861227
534,21.957874028299359
535,-0.896172455861227
536,21.957874028299359
2,1, 5, 3, 0,23,50.00,60.00,Friday
533,-0.8380019638833225
534,19.81617228534853
535,-0.8380019638833225
536,19.81617228534853
2,1, 5, 3, 0,24, 0.00,10.00,Friday
533,-0.7847450181733955
534,17.97920940791748
535,-0.7847450181733955
536,17.97920940791748
2,1, 5, 3, 0,24,10.00,20.00,Friday
533,-0.8358944596399305
534,19.74121277185654
535,-0.8358944596399305
536,19.74121277185654
2,1, 5, 3, 0,24,20.00,30.00,Friday
533,-0.9520753247779307
534,24.14586830336617
535,-0.9520753247779307
536,24.14586830336617
2,1, 5, 3, 0,24,30.00,40.00,Friday
533,-1.0613381353968868
534,28.77236305880527
535,-1.0613381353968868
536,28.77236305880527
2,1, 5, 3, 0,24,40.00,50.00,Friday
533,-0.8788397283987651
534,21.30513859944493
535,-0.8788397283987651
536,21.30513859944493
2,1, 5, 3, 0,24,50.00,60.00,Friday
533,-0.8721237594124859
534,21.05553172704002
535,-0.8721237594124859
536,21.05553172704002
2,2, 5, 4, 0, 1, 0.00,10.00,Saturday
533,-1.029097350460816
534,27.360737242999734
535,-1.029097350460816
536,27.360737242999734
2,2, 5, 4, 0, 1,10.00,20.00,Saturday
533,-1.2115897495786428
534,35.815763563771927
535,-1.2115897495786428
536,35.815763563771927
2,2, 5, 4, 0, 1,20.00,30.00,Saturday
533,-1.3240476403325779
534,41.51174696033047
535,-1.3240476403325779
536,41.51174696033047
2,2, 5, 4, 0, 1,30.00,40.00,Saturday
533,-1.3400684979858358
534,42.34673907592167
535,-1.3400684979858358
536,42.34673907592167
2,2, 5, 4, 0, 1,40.00,50.00,Saturday
533,-1.3214629046125118
534,41.37751995657789
535,-1.3214629046125118
536,41.37751995657789
2,2, 5, 4, 0, 1,50.00,60.00,Saturday
533,-1.3151465904520004
534,41.0500964539446
535,-1.3151465904520004
536,41.0500964539446
2,2, 5, 4, 0, 2, 0.00,10.00,Saturday
533,-1.2621220125932784
534,38.33660902632288
535,-1.2621220125932784
536,38.33660902632288
2,2, 5, 4, 0, 2,10.00,20.00,Saturday
533,-1.1450268126391874
534,32.606076825438069
535,-1.1450268126391874
536,32.606076825438069
2,2, 5, 4, 0, 2,20.00,30.00,Saturday
533,-1.0761585216418064
534,29.43378140390243
535,-1.0761585216418064
536,29.43378140390243
2,2, 5, 4, 0, 2,30.00,40.00,Saturday
533,-1.137810942792998
534,32.26632659314123
535,-1.137810942792998
536,32.26632659314123
2,2, 5, 4, 0, 2,40.00,50.00,Saturday
533,-1.208956185459419
534,35.68628889263839
535,-1.208956185459419
536,35.68628889263839
2,2, 5, 4, 0, 2,50.00,60.00,Saturday
533,-1.2200854665230266
534,36.23476697684245
535,-1.2200854665230266
536,36.23476697684245
2,2, 5, 4, 0, 3, 0.00,10.00,Saturday
533,-1.3394449326455907
534,42.31414437463311
535,-1.3394449326455907
536,42.31414437463311
2,2, 5, 4, 0, 3,10.00,20.00,Saturday
533,-1.483334519504516
534,49.99570538137598
535,-1.483334519504516
536,49.99570538137598
2,2, 5, 4, 0, 3,20.00,30.00,Saturday
533,-1.6190725617898594
534,57.382453924658687
535,-1.6190725617898594
536,57.382453924658687
2,2, 5, 4, 0, 3,30.00,40.00,Saturday
533,-1.6424446577251635
534,58.650482401973288
535,-1.6424446577251635
536,58.650482401973288
2,2, 5, 4, 0, 3,40.00,50.00,Saturday
533,-1.660060127448632
534,59.603349950482378
535,-1.660060127448632
536,59.603349950482378
2,2, 5, 4, 0, 3,50.00,60.00,Saturday
533,-1.7589858850828689
534,64.8823530128127
535,-1.7589858850828689
536,64.8823530128127
2,2, 5, 4, 0, 4, 0.00,10.00,Saturday
533,-1.8857719559299602
534,71.35522438160365
535,-1.8857719559299602
536,71.35522438160365
2,2, 5, 4, 0, 4,10.00,20.00,Saturday
533,-2.0359222556735729
534,78.35852045063302
535,-2.0359222556735729
536,78.35852045063302
2,2, 5, 4, 0, 4,20.00,30.00,Saturday
533,-2.0921216234715946
534,80.7450072223536
535,-2.0921216234715946
536,80.7450072223536
2,2, 5, 4, 0, 4,30.00,40.00,Saturday
533,-2.009146480824187
534,77.1734289371502
535,-2.009146480824187
536,77.1734289371502
2,2, 5, 4, 0, 4,40.00,50.00,Saturday
533,-2.184336544662426
534,84.34366027955088
535,-2.184336544662426
536,84.34366027955088
2,2, 5, 4, 0, 4,50.00,60.00,Saturday
533,-2.16654627593315
534,83.68136645079658
535,-2.16654627593315
536,83.68136645079658
2,2, 5, 4, 0, 5, 0.00,10.00,Saturday
533,-2.162105413242491
534,83.51361645173955
535,-2.162105413242491
536,83.51361645173955
2,2, 5, 4, 0, 5,10.00,20.00,Saturday
533,-2.3082153065715129
534,88.51373775543223
535,-2.3082153065715129
536,88.51373775543223
2,2, 5, 4, 0, 5,20.00,30.00,Saturday
533,-2.3095527771595378
534,88.55448407527956
535,-2.3095527771595378
536,88.55448407527956
2,2, 5, 4, 0, 5,30.00,40.00,Saturday
533,-2.3444052919751465
534,89.58390436686135
535,-2.3444052919751465
536,89.58390436686135
2,2, 5, 4, 0, 5,40.00,50.00,Saturday
533,-2.3949611772667316
534,90.96680964781496
535,-2.3949611772667316
536,90.96680964781496
2,2, 5, 4, 0, 5,50.00,60.00,Saturday
533,-2.48653483640901
534,93.14582585970416
535,-2.48653483640901
536,93.14582585970416
2,2, 5, 4, 0, 6, 0.00,10.00,Saturday
533,-2.5722728410014294
534,94.82310817068999
535,-2.5722728410014294
536,94.82310817068999
2,2, 5, 4, 0, 6,10.00,20.00,Saturday
533,-2.5473378658446848
534,94.36995403985641
535,-2.5473378658446848
536,94.36995403985641
2,2, 5, 4, 0, 6,20.00,30.00,Saturday
533,-2.61269795828734
534,95.50009348298065
535,-2.61269795828734
536,95.50009348298065
2,2, 5, 4, 0, 6,30.00,40.00,Saturday
533,-2.711079232615016
534,96.8701891366764
535,-2.711079232615016
536,96.8701891366764
2,2, 5, 4, 0, 6,40.00,50.00,Saturday
533,-2.7070585003435796
534,96.82139923698655
535,-2.7070585003435796
536,96.82139923698655
2,2, 5, 4, 0, 6,50.00,60.00,Saturday
533,-2.6044744906561259
534,95.36802612723655
535,-2.6044744906561259
536,95.36802612723655
2,2, 5, 4, 0, 7, 0.00,10.00,Saturday
533,-2.5053682632642655
534,93.54345005863843
535,-2.5053682632642655
536,93.54345005863843
2,2, 5, 4, 0, 7,10.00,20.00,Saturday
533,-2.400980139211145
534,91.1228173097978
535,-2.400980139211145
536,91.1228173097978
2,2, 5, 4, 0, 7,20.00,30.00,Saturday
533,-2.359603858739539
534,90.01333067787127
535,-2.359603858739539
536,90.01333067787127
2,2, 5, 4, 0, 7,30.00,40.00,Saturday
533,-2.4286845939379559
534,91.81746165255285
535,-2.4286845939379559
536,91.81746165255285
2,2, 5, 4, 0, 7,40.00,50.00,Saturday
533,-2.523703527253173
534,93.91452855900578
535,-2.523703527253173
536,93.91452855900578
2,2, 5, 4, 0, 7,50.00,60.00,Saturday
533,-2.6530238288403624
534,96.10742487652787
535,-2.6530238288403624
536,96.10742487652787
2,2, 5, 4, 0, 8, 0.00,10.00,Saturday
533,-2.731838793312459
534,97.11296291084662
535,-2.731838793312459
536,97.11296291084662
2,2, 5, 4, 0, 8,10.00,20.00,Saturday
533,-2.6256798269437304
534,95.7028426202574
535,-2.6256798269437304
536,95.7028426202574
2,2, 5, 4, 0, 8,20.00,30.00,Saturday
533,-2.527104173933777
534,93.98163516927017
535,-2.527104173933777
536,93.98163516927017
2,2, 5, 4, 0, 8,30.00,40.00,Saturday
533,-2.443705931391875
534,92.17812564997316
535,-2.443705931391875
536,92.17812564997316
2,2, 5, 4, 0, 8,40.00,50.00,Saturday
533,-2.345411482475321
534,89.61269880752704
535,-2.345411482475321
536,89.61269880752704
2,2, 5, 4, 0, 8,50.00,60.00,Saturday
533,-2.2355753273277898
534,86.16301051107654
535,-2.2355753273277898
536,86.16301051107654
2,2, 5, 4, 0, 9, 0.00,10.00,Saturday
533,-2.0944047278853636
534,80.8389602680092
535,-2.0944047278853636
536,80.8389602680092
2,2, 5, 4, 0, 9,10.00,20.00,Saturday
533,-2.039487053478751
534,78.51401519786126
535,-2.039487053478751
536,78.51401519786126
2,2, 5, 4, 0, 9,20.00,30.00,Saturday
533,-2.0265819452797499
534,77.94853441892265
535,-2.0265819452797499
536,77.94853441892265
2,2, 5, 4, 0, 9,30.00,40.00,Saturday
533,-1.9758055822225776
534,75.65687265272905
535,-1.9758055822225776
536,75.65687265272905
2,2, 5, 4, 0, 9,40.00,50.00,Saturday
533,-1.8683501464621984
534,70.49156428072128
535,-1.8683501464621984
536,70.49156428072128
2,2, 5, 4, 0, 9,50.00,60.00,Saturday
533,-1.8556613988312015
534,69.85680648107373
535,-1.8556613988312015
536,69.85680648107373
2,2, 5, 4, 0,10, 0.00,10.00,Saturday
533,-1.9309577047032885
534,73.54972295819963
535,-1.9309577047032885
536,73.54972295819963
2,2, 5, 4, 0,10,10.00,20.00,Saturday
533,-1.9738263274326245
534,75.5654673308731
535,-1.9738263274326245
536,75.5654673308731
2,2, 5, 4, 0,10,20.00,30.00,Saturday
533,-1.9218531560789232
534,73.11308292814718
535,-1.9218531560789232
536,73.11308292814718
2,2, 5, 4, 0,10,30.00,40.00,Saturday
533,-1.8907960558545137
534,71.6025367064486
535,-1.8907960558545137
536,71.6025367064486
2,2, 5, 4, 0,10,40.00,50.00,Saturday
533,-1.8129532174196826
534,67.68740669958118
535,-1.8129532174196826
536,67.68740669958118
2,2, 5, 4, 0,10,50.00,60.00,Saturday
533,-1.739734863525538
534,63.86712679760574
535,-1.739734863525538
536,63.86712679760574
2,2, 5, 4, 0,11, 0.00,10.00,Saturday
533,-1.6715609988159286
534,60.2238529911816
535,-1.6715609988159286
536,60.2238529911816
2,2, 5, 4, 0,11,10.00,20.00,Saturday
533,-1.6196001144505164
534,57.41111508114138
535,-1.6196001144505164
536,57.41111508114138
2,2, 5, 4, 0,11,20.00,30.00,Saturday
533,-1.5267296224056313
534,52.353896053290728
535,-1.5267296224056313
536,52.353896053290728
2,2, 5, 4, 0,11,30.00,40.00,Saturday
533,-1.4180601557700435
534,46.476661476871139
535,-1.4180601557700435
536,46.476661476871139
2,2, 5, 4, 0,11,40.00,50.00,Saturday
533,-1.3463345556819298
534,42.6746905702968
535,-1.3463345556819298
536,42.6746905702968
2,2, 5, 4, 0,11,50.00,60.00,Saturday
533,-1.2576055858003062
534,38.10858499399332
535,-1.2576055858003062
536,38.10858499399332
2,2, 5, 4, 0,12, 0.00,10.00,Saturday
533,-1.1417988602186465
534,32.453886464537678
535,-1.1417988602186465
536,32.453886464537678
2,2, 5, 4, 0,12,10.00,20.00,Saturday
533,-1.0791594915238006
534,29.568653961274167
535,-1.0791594915238006
536,29.568653961274167
2,2, 5, 4, 0,12,20.00,30.00,Saturday
533,-0.9379900350045212
534,23.5828128440578
535,-0.9379900350045212
536,23.5828128440578
2,2, 5, 4, 0,12,30.00,40.00,Saturday
533,-0.7476226069765909
534,16.76992686379789
535,-0.7476226069765909
536,16.76992686379789
2,2, 5, 4, 0,12,40.00,50.00,Saturday
533,-0.7272585522625963
534,16.13160930678235
535,-0.7272585522625963
536,16.13160930678235
2,2, 5, 4, 0,12,50.00,60.00,Saturday
533,-0.722338580721275
534,15.98006396047414
535,-0.722338580721275
536,15.98006396047414
2,2, 5, 4, 0,13, 0.00,10.00,Saturday
533,-0.5807487203100538
534,12.067286032979766
535,-0.5807487203100538
536,12.067286032979766
2,2, 5, 4, 0,13,10.00,20.00,Saturday
533,-0.39761788468170219
534,8.293908753775782
535,-0.39761788468170219
536,8.293908753775782
2,2, 5, 4, 0,13,20.00,30.00,Saturday
533,-0.3075022494800344
534,6.965258617529955
535,-0.3075022494800344
536,6.965258617529955
2,2, 5, 4, 0,13,30.00,40.00,Saturday
533,-0.2751539818555382
534,6.572330159087485
535,-0.2751539818555382
536,6.572330159087485
2,2, 5, 4, 0,13,40.00,50.00,Saturday
533,-0.21159378156781356
534,5.928618037931912
535,-0.21159378156781356
536,5.928618037931912
2,2, 5, 4, 0,13,50.00,60.00,Saturday
533,-0.07610730064534337
534,5.119935045641398
535,-0.07610730064534337
536,5.119935045641398
2,2, 5, 4, 0,14, 0.00,10.00,Saturday
533,0.04065545610306922
534,5.034217693347415
535,0.04065545610306922
536,5.034217693347415
2,2, 5, 4, 0,14,10.00,20.00,Saturday
533,0.0865051639185125
534,5.1549566667925579
535,0.0865051639185125
536,5.1549566667925579
2,2, 5, 4, 0,14,20.00,30.00,Saturday
533,0.10785089374244822
534,5.240909390252469
535,0.10785089374244822
536,5.240909390252469
2,2, 5, 4, 0,14,30.00,40.00,Saturday
533,0.04042649636361658
534,5.033833342184053
535,0.04042649636361658
536,5.033833342184053
2,2, 5, 4, 0,14,40.00,50.00,Saturday
533,-0.007220026891372082
534,5.001079094509649
535,-0.007220026891372082
536,5.001079094509649
2,2, 5, 4, 0,14,50.00,60.00,Saturday
533,0.23686862493767295
534,6.164271866900606
535,0.23686862493767295
536,6.164271866900606
2,2, 5, 4, 0,15, 0.00,10.00,Saturday
533,0.32446048355342718