Program Version,EnergyPlus, Version 9.5.0-de239b2e5f, YMD=2021.12.08 21:12
1,5,Environment Title[],Latitude[deg],Longitude[deg],Time Zone[],Elevation[m]
2,8,Day of Simulation[],Month[],Day of Month[],DST Indicator[1=yes 0=no],Hour[],StartMinute[],EndMinute[],DayType
3,5,Cumulative Day of Simulation[],Month[],Day of Month[],DST Indicator[1=yes 0=no],DayType  ! When Daily Report Variables Requested
4,2,Cumulative Days of Simulation[],Month[]  ! When Monthly Report Variables Requested
5,1,Cumulative Days of Simulation[] ! When Run Period Report Variables Requested
6,1,Calendar Year of Simulation[] ! When Annual Report Variables Requested
86,1,THERMAL ZONE: CUBI_1,Zone Mean Air Temperature [C] !TimeStep
87,1,THERMAL ZONE: CUBI_2,Zone Mean Air Temperature [C] !TimeStep
88,1,THERMAL ZONE: CUBI_JORGE,Zone Mean Air Temperature [C] !TimeStep
89,1,THERMAL ZONE: TECHO_1,Zone Mean Air Temperature [C] !TimeStep
90,1,THERMAL ZONE: TECHO_2,Zone Mean Air Temperature [C] !TimeStep
91,1,THERMAL ZONE: TECHO_JORGE,Zone Mean Air Temperature [C] !TimeStep
End of Data Dictionary
1,RUN PERIOD 1,  18.85, -99.14,  -6.00,1280.00
2,1, 5, 3, 0, 1, 0.00,10.00,Friday
86,28.118639495029659
87,27.944772101261355
88,28.39404903730645
89,27.182476986275156
90,27.07307089708138
91,25.864221487738253
2,1, 5, 3, 0, 1,10.00,20.00,Friday
86,28.02557366499292
87,27.831928953709644
88,28.20523170334956
89,27.152983678671484
90,27.037955355647026
91,25.975397832442039
2,1, 5, 3, 0, 1,20.00,30.00,Friday
86,28.019383407265555
87,27.813270966171478
88,28.21325720616113
89,27.123211828766395
90,27.002250828053023
91,25.565939590985388
2,1, 5, 3, 0, 1,30.00,40.00,Friday
86,27.989538882022566
87,27.76630850598637
88,28.162165723156254
89,27.087549218881848
90,26.96027763654127
91,25.77196393039408
2,1, 5, 3, 0, 1,40.00,50.00,Friday
86,27.955360656200619
87,27.721245280805407
88,28.09261770030116
89,27.051453981708954
90,26.917836102861945
91,25.426840905550244
2,1, 5, 3, 0, 1,50.00,60.00,Friday
86,27.90867393007247
87,27.657466661544118
88,27.996680946820108
89,27.009324222006005
90,26.869630478032936
91,25.62929945058596
2,1, 5, 3, 0, 2, 0.00,10.00,Friday
86,27.856678265688186
87,27.58625076832662
88,27.878908296481876
89,26.962775622323364
90,26.8159334242913
91,25.440079287198729
2,1, 5, 3, 0, 2,10.00,20.00,Friday
86,27.853593691506445
87,27.57526325001602
88,27.886820667002377
89,26.92562992073082
90,26.7706529504825
91,24.944144859497724
2,1, 5, 3, 0, 2,20.00,30.00,Friday
86,27.827748425279933
87,27.538013678046416
88,27.850525599143475
89,26.87813003336339
90,26.71593542936591
91,25.047532886623775
2,1, 5, 3, 0, 2,30.00,40.00,Friday
86,27.792879680209546
87,27.48856007805016
88,27.790857954889458
89,26.824481013635287
90,26.65543788194384
91,24.96250526608099
2,1, 5, 3, 0, 2,40.00,50.00,Friday
86,27.771986031541905
87,27.463298034056359
88,27.752691660067478
89,26.782700716986889
90,26.60744272303922
91,25.24480545322487
2,1, 5, 3, 0, 2,50.00,60.00,Friday
86,27.734128725270865
87,27.41781161632106
88,27.68571879133619
89,26.732675450098115
90,26.550869085989786
91,24.95512148067741
2,1, 5, 3, 0, 3, 0.00,10.00,Friday
86,27.684800552506489
87,27.356127667091906
88,27.600200765584544
89,26.677911995129674
90,26.490312938863803
91,24.779013027246525
2,1, 5, 3, 0, 3,10.00,20.00,Friday
86,27.638685122592464
87,27.296465046678358
88,27.521538495620406
89,26.62833767302672
90,26.435000813438206
91,24.702012088152754
2,1, 5, 3, 0, 3,20.00,30.00,Friday
86,27.596183088694997
87,27.242242079537204
88,27.44476293441729
89,26.580281877075014
90,26.38096422301213
91,24.99941967520695
2,1, 5, 3, 0, 3,30.00,40.00,Friday
86,27.582337953612517
87,27.223115251780489
88,27.424497004081937
89,26.53659307127819
90,26.33198251994544
91,24.487418623085668
2,1, 5, 3, 0, 3,40.00,50.00,Friday
86,27.544210761832646
87,27.17670774158518
88,27.34672103624127
89,26.487057625409798
90,26.276535797330625
91,25.171062075104318
2,1, 5, 3, 0, 3,50.00,60.00,Friday
86,27.511564947897889
87,27.134552490878716
88,27.304101456959388
89,26.437129188053704
90,26.220673649853276
91,24.474954727674147
2,1, 5, 3, 0, 4, 0.00,10.00,Friday
86,27.450324453853303
87,27.05638829431627
88,27.189438503842739
89,26.381907695023228
90,26.15900430362264
91,24.983485950637033
2,1, 5, 3, 0, 4,10.00,20.00,Friday
86,27.42955750299958
87,27.029489888553955
88,27.14299499750239
89,26.335584867465664
90,26.10745523667822
91,25.357144929464494
2,1, 5, 3, 0, 4,20.00,30.00,Friday
86,27.38808616106402
87,26.976879052249559
88,27.07531076975741
89,26.280800029592869
90,26.046653758044788
91,24.588500520424565
2,1, 5, 3, 0, 4,30.00,40.00,Friday
86,27.347788720174465
87,26.926641710072386
88,26.99561156640562
89,26.22819479537148
90,25.988493115819546
91,25.161504772144548
2,1, 5, 3, 0, 4,40.00,50.00,Friday
86,27.27603744074386
87,26.83623115024606
88,26.869074939428054
89,26.169564648172807
90,25.92387090040501
91,24.46778967465166
2,1, 5, 3, 0, 4,50.00,60.00,Friday
86,27.251400273200546
87,26.805150072948778
88,26.82001260484194
89,26.11961013633568
90,25.86901887287794
91,25.085432872677115
2,1, 5, 3, 0, 5, 0.00,10.00,Friday
86,27.209251309906855
87,26.751802304918795
88,26.753042023420549
89,26.06149635877411
90,25.805371739043254
91,24.501462625439339
2,1, 5, 3, 0, 5,10.00,20.00,Friday
86,27.14723052371113
87,26.674266720519076
88,26.640910979683555
89,26.000325173359838
90,25.738562647036824
91,24.77328740301651
2,1, 5, 3, 0, 5,20.00,30.00,Friday
86,27.12230348303381
87,26.638416743066768
88,26.62869221436027
89,25.93996079022529
90,25.672845417191497
91,24.01104160404424
2,1, 5, 3, 0, 5,30.00,40.00,Friday
86,27.08117155570201
87,26.58395106746113
88,26.57795647730398
89,25.880981827148408
90,25.608785454465115
91,24.185739767860093
2,1, 5, 3, 0, 5,40.00,50.00,Friday
86,27.041775815483768
87,26.52894621636752
88,26.535025244425264
89,25.816289527560458
90,25.538608641754306
91,23.976833410510975
2,1, 5, 3, 0, 5,50.00,60.00,Friday
86,27.018289700597465
87,26.496854502769304
88,26.51953594678745
89,25.761106629408514
90,25.478790043053505
91,23.445986786729529
2,1, 5, 3, 0, 6, 0.00,10.00,Friday
86,26.97927584517452
87,26.44440624833273
88,26.482716432675823
89,25.69929178056784
90,25.411765757051997
91,23.73637963662481
2,1, 5, 3, 0, 6,10.00,20.00,Friday
86,26.92030831216207
87,26.375947552379267
88,26.37077894526778
89,25.639065972782647
90,25.346400479738575
91,23.336694172201854
2,1, 5, 3, 0, 6,20.00,30.00,Friday
86,26.870287338984839
87,26.315463220225156
88,26.275261631874025
89,25.58198426363447
90,25.284372114353955
91,23.902155313977809
2,1, 5, 3, 0, 6,30.00,40.00,Friday
86,26.78646503190132
87,26.217669749711008
88,26.108117693692529
89,25.51881896172802
90,25.215696735989309
91,23.714326651942679
2,1, 5, 3, 0, 6,40.00,50.00,Friday
86,26.748169907609915
87,26.16902955499615
88,26.059051461734265
89,25.457150892501028
90,25.148725886595597
91,23.188804466820764
2,1, 5, 3, 0, 6,50.00,60.00,Friday
86,26.699548136406937
87,26.106554472323727
88,26.001089136168834
89,25.396696469392528
90,25.08318811263314
91,22.906223668983004
2,1, 5, 3, 0, 7, 0.00,10.00,Friday
86,26.664703290329663
87,26.061971009382775
88,25.948880380324739
89,25.334245376724568
90,25.015647028236459
91,23.265559245988194
2,1, 5, 3, 0, 7,10.00,20.00,Friday
86,26.625036597616643
87,26.0084325313303
88,25.89845802602884
89,25.268686337486807
90,24.944792429530588
91,23.349772781110596
2,1, 5, 3, 0, 7,20.00,30.00,Friday
86,26.598592923279804
87,25.968849711642549
88,25.886036770938668
89,25.200918633546868
90,24.871630771157379
91,22.417880251608204
2,1, 5, 3, 0, 7,30.00,40.00,Friday
86,26.550007670516778
87,25.906225814890808
88,25.837225267817403
89,25.136927500577039
90,24.80253171484163
91,22.389510213480745
2,1, 5, 3, 0, 7,40.00,50.00,Friday
86,26.501970647074157
87,25.844189555597198
88,25.795150565230807
89,25.06886607144949
90,24.728957049373834
91,22.53666809752012
2,1, 5, 3, 0, 7,50.00,60.00,Friday
86,26.490160105496366
87,25.826393761422449
88,25.799010266677518
89,25.011388395821908
90,24.66673083064913
91,22.85906198835096
2,1, 5, 3, 0, 8, 0.00,10.00,Friday
86,26.45621009223751
87,25.779385656548116
88,25.772121752843377
89,24.945333689961065
90,24.595085629061779
91,23.804091332652044
2,1, 5, 3, 0, 8,10.00,20.00,Friday
86,26.43256269844525
87,25.74605586323461
88,25.75320998399265
89,24.88530594292049
90,24.52997040721559
91,23.695907865633015
2,1, 5, 3, 0, 8,20.00,30.00,Friday
86,26.439076807293867
87,25.7415657306307
88,25.82471144612892
89,24.82639188120918
90,24.465907414161245
91,23.41257153678497
2,1, 5, 3, 0, 8,30.00,40.00,Friday
86,26.468284680933104
87,25.760872815549427
88,25.93482584330443
89,24.772300074966034
90,24.406661290498155
91,23.100932039308416
2,1, 5, 3, 0, 8,40.00,50.00,Friday
86,26.519519759423937
87,25.79265479380515
88,26.114384536365518
89,24.715884034301778
90,24.34400105969535
91,23.495226828113965
2,1, 5, 3, 0, 8,50.00,60.00,Friday
86,26.557271436481295
87,25.816645971085454
88,26.238893289555916
89,24.66634022557931
90,24.287800284424816
91,23.78768629218807
2,1, 5, 3, 0, 9, 0.00,10.00,Friday
86,26.589267287269267
87,25.84365473310313
88,26.312652092019385
89,24.627441311176768
90,24.242030313378387
91,24.235593582298216
2,1, 5, 3, 0, 9,10.00,20.00,Friday
86,26.620213746811129
87,25.86517323672329
88,26.40077715958017
89,24.590492534246548
90,24.197381136258579
91,24.219781358548305
2,1, 5, 3, 0, 9,20.00,30.00,Friday
86,26.641801882135167
87,25.876737371453787
88,26.478656234530975
89,24.558032745326423
90,24.156812244176515
91,24.205926821569244
2,1, 5, 3, 0, 9,30.00,40.00,Friday
86,26.663478560467977
87,25.889583832730819
88,26.553114849818749
89,24.536570314585395
90,24.128405815669493
91,24.2496007582898
2,1, 5, 3, 0, 9,40.00,50.00,Friday
86,26.694460277207566
87,25.914204040728384
88,26.637323278859975
89,24.52237280056061
90,24.10833762482529
91,24.373898089072499
2,1, 5, 3, 0, 9,50.00,60.00,Friday
86,26.728977024816776
87,25.945247821082189
88,26.72376243541839
89,24.51324020192379
90,24.09426529874482
91,24.273782773596844
2,1, 5, 3, 0,10, 0.00,10.00,Friday
86,26.755972042019914
87,25.968595283076174
88,26.931116182973953
89,24.510426008751464
90,24.087985705626328
91,24.677494501985508
2,1, 5, 3, 0,10,10.00,20.00,Friday
86,26.79708543510004
87,26.006864803926985
88,27.154332087931377
89,24.51126417339725
90,24.085636207523466
91,24.859905915636238
2,1, 5, 3, 0,10,20.00,30.00,Friday
86,26.840068109003299
87,26.049971241180804
88,27.313640419764906
89,24.517153749446569
90,24.088908540136879
91,24.98781510472551
2,1, 5, 3, 0,10,30.00,40.00,Friday
86,26.87446480892999
87,26.091665709893709
88,27.398062320634908
89,24.528482747732089
90,24.09866233309983
91,24.948326130140683
2,1, 5, 3, 0,10,40.00,50.00,Friday
86,26.902919857267219
87,26.13183825691363
88,27.45656006751663
89,24.544232226061444
90,24.113426680337367
91,25.198864064767855
2,1, 5, 3, 0,10,50.00,60.00,Friday
86,26.924627461679177
87,26.165027606949854
88,27.510938984191655
89,24.564247460358908
90,24.132930766745063
91,24.907437098231648
2,1, 5, 3, 0,11, 0.00,10.00,Friday
86,26.954047914043867
87,26.204923743333788
88,27.591040007649619
89,24.58858739512314
90,24.157364478056654
91,24.84523941906332
2,1, 5, 3, 0,11,10.00,20.00,Friday
86,26.999985240801857
87,26.26690805542846
88,27.711301476829047
89,24.616369466140115
90,24.18574729362163
91,24.922700232209239
2,1, 5, 3, 0,11,20.00,30.00,Friday
86,27.033396423552508
87,26.310091300018287
88,27.794747699659206
89,24.64379304435063
90,24.2139892389754
91,25.163047230626885
2,1, 5, 3, 0,11,30.00,40.00,Friday
86,27.073606360873087
87,26.359019383231077
88,27.903305021960386
89,24.675570041782295
90,24.246795147169853
91,25.758998405045739
2,1, 5, 3, 0,11,40.00,50.00,Friday
86,27.109145122154897
87,26.406110426297319
88,27.995943708887724
89,24.709441627891989
90,24.281820034564914
91,25.314186028550869
2,1, 5, 3, 0,11,50.00,60.00,Friday
86,27.16455209523623
87,26.47878158623782
88,28.142238607298514
89,24.75036704489332
90,24.324073281424039
91,25.524006499564686
2,1, 5, 3, 0,12, 0.00,10.00,Friday
86,27.220458556641974
87,26.547214235891507
88,28.272527567925118
89,24.78964285357379
90,24.364389739127515
91,26.0187809715047
2,1, 5, 3, 0,12,10.00,20.00,Friday
86,27.291665626387077
87,26.637346921652229
88,28.459633590231907
89,24.836241660615003
90,24.412224205586275
91,25.980266349885299
2,1, 5, 3, 0,12,20.00,30.00,Friday
86,27.3370785352072
87,26.688644289757155
88,28.567848809973449
89,24.880148213865355
90,24.456978763750258
91,27.019278009651367
2,1, 5, 3, 0,12,30.00,40.00,Friday
86,27.39699896294845
87,26.76252270852248
88,28.708325595651979
89,24.930715328146026
90,24.508268633550757
91,27.167646941574597
2,1, 5, 3, 0,12,40.00,50.00,Friday
86,27.47737436476274
87,26.858150359709886
88,28.893324094221918
89,24.9875357031039
90,24.565766001124776
91,27.359653860336484
2,1, 5, 3, 0,12,50.00,60.00,Friday
86,27.564797169020794
87,26.960000478921147
88,29.088459770877017
89,25.044720719608816
90,24.62613007002933
91,27.273549441335296
2,1, 5, 3, 0,13, 0.00,10.00,Friday
86,27.629934076957566
87,27.033575966676666
88,29.232252365954943
89,25.101413432647193
90,24.68716247670229
91,28.362861366875629
2,1, 5, 3, 0,13,10.00,20.00,Friday
86,27.703679260570217
87,27.124008969293166
88,29.399108483604889
89,25.165628927262746
90,24.75671105100878
91,27.532352316438585
2,1, 5, 3, 0,13,20.00,30.00,Friday
86,27.719762218217807
87,27.147768763402227
88,29.43515004842549
89,25.22629272108661
90,24.826209339827167
91,26.982877753142249
2,1, 5, 3, 0,13,30.00,40.00,Friday
86,27.754878477695443
87,27.19070616480169
88,29.520519633881116
89,25.295469413515606
90,24.905456392105078
91,28.29513191370441
2,1, 5, 3, 0,13,40.00,50.00,Friday
86,27.801312906746163
87,27.249183960976823
88,29.606236313466917
89,25.372517952187385
90,24.989216279094838
91,27.454934781109054
2,1, 5, 3, 0,13,50.00,60.00,Friday
86,27.826493742120776
87,27.28643718528766
88,29.67494796768573
89,25.452249682258928
90,25.077883850711069
91,28.863393541337744
2,1, 5, 3, 0,14, 0.00,10.00,Friday
86,27.876101629985596
87,27.351515414126927
88,29.78762575603613
89,25.539371268504845
90,25.174510369552949
91,28.87443724091078
2,1, 5, 3, 0,14,10.00,20.00,Friday
86,27.974577549854325
87,27.464703944330883
88,29.970711299532004
89,25.628386826463193
90,25.27359638635706
91,29.105505041165576
2,1, 5, 3, 0,14,20.00,30.00,Friday
86,28.03233979748169
87,27.534414942877416
88,30.082063496038918
89,25.704948710306139
90,25.360767843580903
91,28.209159788095037
2,1, 5, 3, 0,14,30.00,40.00,Friday
86,28.075613368485145
87,27.591070156065528
88,30.159163118851369
89,25.78234753435907
90,25.450087226911589
91,28.865540961391006
2,1, 5, 3, 0,14,40.00,50.00,Friday
86,28.190067121830386
87,27.72882498267896
88,30.350870850364126
89,25.87370174747149
90,25.557309465700006
91,28.670425361025239
2,1, 5, 3, 0,14,50.00,60.00,Friday
86,28.28356693707594
87,27.843164776284096
88,30.521008431049
89,25.964032944785467
90,25.666177794267506
91,30.118734597870323
2,1, 5, 3, 0,15, 0.00,10.00,Friday
86,28.2434588153377
87,27.824335158037294
88,30.472359588937456
89,26.048751796669664
90,25.772938289549136
91,29.158125814199189
2,1, 5, 3, 0,15,10.00,20.00,Friday
86,28.285006323721448
87,27.888308538325949
88,30.545235935802965
89,26.136745946569975
90,25.887751661229033
91,29.695412001213286
2,1, 5, 3, 0,15,20.00,30.00,Friday
86,28.381927543626369
87,28.018072702036727
88,30.70298979199605
89,26.2367697741587
90,26.01588210014002
91,28.796068609660833
2,1, 5, 3, 0,15,30.00,40.00,Friday
86,28.51906294349393
87,28.19305193597441
88,30.930290216758743
89,26.33668292109681
90,26.139015081002094
91,31.88131210194837
2,1, 5, 3, 0,15,40.00,50.00,Friday
86,28.567549615982217
87,28.272274568448919
88,30.985895607240246
89,26.436939866615064
90,26.25675380710365
91,30.587320874191947
2,1, 5, 3, 0,15,50.00,60.00,Friday
86,28.61455203934835
87,28.352846847595559
88,31.060055943107416
89,26.530401370547776
90,26.36847903168445
91,30.207601768141339
2,1, 5, 3, 0,16, 0.00,10.00,Friday
86,28.7668650807848
87,28.572374589423803
88,31.284645177981284
89,26.664919415811914
90,26.526141759153714
91,31.008565814147404
2,1, 5, 3, 0,16,10.00,20.00,Friday
86,28.87308704092861
87,28.730740563820473
88,31.421901987683098
89,26.765430263158259
90,26.64768594805753
91,31.41227278972054
2,1, 5, 3, 0,16,20.00,30.00,Friday
86,28.859933022146359
87,28.748535818300128
88,31.380929949355254
89,26.84567938388222
90,26.7402129967379
91,30.621581780952437
2,1, 5, 3, 0,16,30.00,40.00,Friday
86,28.873952998237308
87,28.813701061764374
88,31.383523373091529
89,26.957339416997564
90,26.876616471802625
91,30.40272036368828
2,1, 5, 3, 0,16,40.00,50.00,Friday
86,28.90654142627293
87,28.889015476031504
88,31.410728408190538
89,27.06606431926815
90,27.01071442245295
91,31.05787553158273
2,1, 5, 3, 0,16,50.00,60.00,Friday
86,28.901542571538955
87,28.93871216727375
88,31.357728568122057
89,27.176542649834347
90,27.144704532175106
91,30.858691809853668
2,1, 5, 3, 0,17, 0.00,10.00,Friday
86,28.902194866988926
87,28.982316290445625
88,31.348175773814274
89,27.28137937681543
90,27.272568169152259
91,31.879371504090338
2,1, 5, 3, 0,17,10.00,20.00,Friday
86,28.85699926704991
87,28.982982556752284
88,31.190684787355474
89,27.37288662175116
90,27.382392252175568
91,30.607085060964758
2,1, 5, 3, 0,17,20.00,30.00,Friday
86,28.78245321206553
87,28.98459264866665
88,30.903451540147296
89,27.4857065785718
90,27.515319499179119
91,29.334059373182794
2,1, 5, 3, 0,17,30.00,40.00,Friday
86,28.775418937923065
87,29.004987682927287
88,30.817395842148959
89,27.559324710824119
90,27.600411507207466
91,28.98133504735476
2,1, 5, 3, 0,17,40.00,50.00,Friday
86,28.74451320065579
87,29.03480386954854
88,30.66711822328471
89,27.663879054413088
90,27.718576824225737
91,28.512507507637307
2,1, 5, 3, 0,17,50.00,60.00,Friday
86,28.76442653289767
87,29.092022531176207
88,30.721503637843989
89,27.730331164901956
90,27.79173769683292
91,29.105762061007085
2,1, 5, 3, 0,18, 0.00,10.00,Friday
86,28.770708676601975
87,29.11126107141033
88,30.65651260267656
89,27.78147252341593
90,27.84730633817149
91,28.104127557789384
2,1, 5, 3, 0,18,10.00,20.00,Friday
86,28.75648791008419
87,29.109833711008247
88,30.606922282695405
89,27.82181660549131
90,27.890054471169678
91,27.556822029022656
2,1, 5, 3, 0,18,20.00,30.00,Friday
86,28.750807853232698
87,29.12172985040352
88,30.56286429246707
89,27.866090060877679
90,27.936056072219246
91,27.579599989158937
2,1, 5, 3, 0,18,30.00,40.00,Friday
86,28.775505726360295
87,29.150513827580054
88,30.599959100481536
89,27.89041804395466
90,27.960458771035627
91,28.012393513102844
2,1, 5, 3, 0,18,40.00,50.00,Friday
86,28.81491932954342
87,29.194858193013304
88,30.656626682672618
89,27.91364879600625
90,27.9828267349128
91,28.309528483196247
2,1, 5, 3, 0,18,50.00,60.00,Friday
86,28.846359530015673
87,29.222731845775124
88,30.703524469735258
89,27.92337399141244
90,27.990949526170224
91,28.474218093646689
2,1, 5, 3, 0,19, 0.00,10.00,Friday
86,28.85794185516106
87,29.224841797676196
88,30.569254019661
89,27.925971127824977
90,27.991428381436035
91,28.328968317880827
2,1, 5, 3, 0,19,10.00,20.00,Friday
86,28.86270605700415
87,29.218855892501528
88,30.44833989488962
89,27.9274086482816
90,27.99057639274479
91,28.512554905052885
2,1, 5, 3, 0,19,20.00,30.00,Friday
86,28.856899304973934
87,29.201432737992353
88,30.39109843458591
89,27.92878967974773
90,27.989624783135797
91,28.604736189466029
2,1, 5, 3, 0,19,30.00,40.00,Friday
86,28.84319823637072
87,29.17601867064498
88,30.344421117525998
89,27.92986072522054
90,27.98834168080134
91,28.38653450587766
2,1, 5, 3, 0,19,40.00,50.00,Friday
86,28.825707510991248
87,29.147146381892808
88,30.30657004305793
89,27.930729311973747
90,27.986800966592065
91,28.38561043405079
2,1, 5, 3, 0,19,50.00,60.00,Friday
86,28.80705594138599
87,29.116181490532385
88,30.23171579086336
89,27.931383859218419
90,27.984938658542874
91,28.26094781380893
2,1, 5, 3, 0,20, 0.00,10.00,Friday
86,28.791080502165899
87,29.08764631956656
88,30.158626415081323
89,27.931446834467189
90,27.98233899400358
91,28.20615911026654
2,1, 5, 3, 0,20,10.00,20.00,Friday
86,28.773956420241679
87,29.05816553943244
88,30.10112995446225
89,27.930468288900419
90,27.97851667916949
91,28.234297064744707
2,1, 5, 3, 0,20,20.00,30.00,Friday
86,28.749872742952819
87,29.02153255271037
88,30.025669481314119
89,27.928175028166124
90,27.973174274676837
91,28.040066449261667
2,1, 5, 3, 0,20,30.00,40.00,Friday
86,28.72819424354924
87,28.98706527446359
88,29.958573924324435
89,27.92438584153284
90,27.966142814727303
91,28.08333177174675
2,1, 5, 3, 0,20,40.00,50.00,Friday
86,28.71410093704759
87,28.964530738817606
88,29.89954991999583
89,27.919650333681078
90,27.958778401967117
91,27.616316159862799
2,1, 5, 3, 0,20,50.00,60.00,Friday
86,28.685888821509648
87,28.921704535045316
88,29.795449029627706
89,27.912065561684039
90,27.947666453366645
91,27.328436101665568
2,1, 5, 3, 0,21, 0.00,10.00,Friday
86,28.647530877491179
87,28.86430486968408
88,29.661176928942394
89,27.901839883076275
90,27.934162852897889
91,27.060449187376454
2,1, 5, 3, 0,21,10.00,20.00,Friday
86,28.629750183388969
87,28.826373274033718
88,29.609726947019888
89,27.889756792699136
90,27.91610210803704
91,27.325081812083206
2,1, 5, 3, 0,21,20.00,30.00,Friday
86,28.6217631393796
87,28.798126957106697
88,29.619252992595685
89,27.87476332280827
90,27.89166642887058
91,27.518511096228545
2,1, 5, 3, 0,21,30.00,40.00,Friday
86,28.612743444478256
87,28.76802765743025
88,29.619076009356367
89,27.853015335500115
90,27.862647904470973
91,27.473362771947774
2,1, 5, 3, 0,21,40.00,50.00,Friday
86,28.60704331871004
87,28.74980246075029
88,29.595243928428415
89,27.830707807990419
90,27.835381684554628
91,27.958245455029386
2,1, 5, 3, 0,21,50.00,60.00,Friday
86,28.586567821392437
87,28.70954671768509
88,29.531557682434767
89,27.803446901900107
90,27.801812712640357
91,27.819499671317243
2,1, 5, 3, 0,22, 0.00,10.00,Friday
86,28.576121446366579
87,28.68400502390069
88,29.489555811719855
89,27.777558487704924
90,27.7693717037569
91,27.406848777446599
2,1, 5, 3, 0,22,10.00,20.00,Friday
86,28.548358399425639
87,28.627613718249699
88,29.391848616037195
89,27.741629878237967
90,27.72596733795173
91,27.047772593230456
2,1, 5, 3, 0,22,20.00,30.00,Friday
86,28.504303367649308
87,28.560064921019163
88,29.261281874761754
89,27.709124629429835
90,27.68732438400606
91,26.75507736589495
2,1, 5, 3, 0,22,30.00,40.00,Friday
86,28.49117111674814
87,28.538925459315693
88,29.24939399232443
89,27.68507095569936
90,27.65516474541166
91,27.489828509129145
2,1, 5, 3, 0,22,40.00,50.00,Friday
86,28.475407177507497
87,28.50691254073393
88,29.22299070150825
89,27.653660677395103
90,27.61452000977529
91,27.657077659758085
2,1, 5, 3, 0,22,50.00,60.00,Friday
86,28.464085366322345
87,28.4785581534765
88,29.197170807543693
89,27.62136009694187
90,27.575844266501908
91,26.783643249969484
2,1, 5, 3, 0,23, 0.00,10.00,Friday
86,28.44038069910066
87,28.44130094650663
88,29.140771481124668
89,27.594952179047664
90,27.54469377693561
91,27.188589677036349
2,1, 5, 3, 0,23,10.00,20.00,Friday
86,28.418117518903068
87,28.391954348871275
88,29.077545177002823
89,27.55475742362646
90,27.497442651585958
91,27.70366187046429
2,1, 5, 3, 0,23,20.00,30.00,Friday
86,28.411261282417013
87,28.364908605700437
88,29.053690475609458
89,27.523462202625365
90,27.461192039467748
91,27.29164367118974
2,1, 5, 3, 0,23,30.00,40.00,Friday
86,28.37755989248556
87,28.31476579657184
88,28.95349384464464
89,27.491147160560688
90,27.423981607355417
91,26.613511218005148
2,1, 5, 3, 0,23,40.00,50.00,Friday
86,28.343615971152354
87,28.26497983117025
88,28.86323409661725
89,27.45878453468489
90,27.38659597986412
91,26.845203101481137
2,1, 5, 3, 0,23,50.00,60.00,Friday
86,28.344726588582867
87,28.25589838578304
88,28.868516721290164
89,27.429979297634945
90,27.352889906751387
91,27.347630127540499
2,1, 5, 3, 0,24, 0.00,10.00,Friday
86,28.334018191818048
87,28.222377877754938
88,28.845635237263836
89,27.393007807474026
90,27.31016763931494
91,27.07975419408171
2,1, 5, 3, 0,24,10.00,20.00,Friday
86,28.31961785342053
87,28.187020132952545
88,28.799701477898656
89,27.360070904158886
90,27.27163621338673
91,27.099360584003177
2,1, 5, 3, 0,24,20.00,30.00,Friday
86,28.30877559977698
87,28.169675726221027
88,28.754263077915135
89,27.332601559385709
90,27.238915869989705
91,26.575560908465236
2,1, 5, 3, 0,24,30.00,40.00,Friday
86,28.29286706144823
87,28.141381305350959
88,28.690788876587626
89,27.299635292123616
90,27.200148319156719
91,26.382856465472327
2,1, 5, 3, 0,24,40.00,50.00,Friday
86,28.28805088149062
87,28.124925352728974
88,28.700632810977156
89,27.26938619654161
90,27.1642313350118
91,26.76685306832692
2,1, 5, 3, 0,24,50.00,60.00,Friday
86,28.27431679474848
87,28.095902325246564
88,28.679020630198793
89,27.237482799326359
90,27.126596078358813
91,26.875722191568785
2,2, 5, 4, 0, 1, 0.00,10.00,Saturday
86,28.252705367475615
87,28.066632810718795
88,28.61476263773328
89,27.2091722556406
90,27.09266609533647
91,26.490317845909745
2,2, 5, 4, 0, 1,10.00,20.00,Saturday
86,28.20502361496343
87,28.001051747519143
88,28.488128479979637
89,27.176407323326349
90,27.053847574818179
91,26.145124250933678
2,2, 5, 4, 0, 1,20.00,30.00,Saturday
86,28.162592861022604
87,27.942458586697886
88,28.378130616709745
89,27.147902270725557
90,27.01938515735921
91,25.941390339671679
2,2, 5, 4, 0, 1,30.00,40.00,Saturday
86,28.12728379549106
87,27.894043154982368
88,28.308031911838485
89,27.11968091956182
90,26.98541990453265
91,25.965281938837724
2,2, 5, 4, 0, 1,40.00,50.00,Saturday
86,28.103976923397299
87,27.85948585531433
88,28.27261950516291
89,27.090637092469185
90,26.9510450937213
91,26.1135018674543
2,2, 5, 4, 0, 1,50.00,60.00,Saturday
86,28.086529002490307
87,27.83189666164279
88,28.249136945614084
89,27.060637478777854
90,26.915839231183985
91,26.26268105433585
2,2, 5, 4, 0, 2, 0.00,10.00,Saturday
86,28.077661961344533
87,27.817983027557767
88,28.247777995835457
89,27.03264063958006
90,26.882605254236798
91,26.748211464097726
2,2, 5, 4, 0, 2,10.00,20.00,Saturday
86,28.065468165689109
87,27.80022890204903
88,28.234314298073668
89,27.005365499391716
90,26.850285054097875
91,26.159930679865739
2,2, 5, 4, 0, 2,20.00,30.00,Saturday
86,28.045207658754433
87,27.770581697713355
88,28.207854918446519
89,26.971082137218617
90,26.809447074365779
91,26.19019811151193
2,2, 5, 4, 0, 2,30.00,40.00,Saturday
86,28.015071079844238
87,27.728929117429524
88,28.159961139087579
89,26.935978606986486
90,26.76834047077896
91,26.173453418390364
2,2, 5, 4, 0, 2,40.00,50.00,Saturday
86,27.986272755723907
87,27.68835128723148
88,28.110816202280824
89,26.904973570404836
90,26.731940198427375
91,26.214347063529936
2,2, 5, 4, 0, 2,50.00,60.00,Saturday
86,27.960911335776076
87,27.65164590964812
88,28.06530377885115
89,26.875018230028087
90,26.696432627291477
91,26.07004875311605
2,2, 5, 4, 0, 3, 0.00,10.00,Saturday
86,27.93637078406033
87,27.622753267834879
88,28.013165308967215
89,26.847083619474739
90,26.66303470815511
91,26.49999151260009
2,2, 5, 4, 0, 3,10.00,20.00,Saturday
86,27.89267725730438
87,27.570106252792248
88,27.92254095910337
89,26.816901419859489
90,26.62738193498058
91,26.263441828767328
2,2, 5, 4, 0, 3,20.00,30.00,Saturday
86,27.837411760056633
87,27.502015047335445
88,27.803380064325088
89,26.783384524174847
90,26.588099609963395
91,26.060153643510355
2,2, 5, 4, 0, 3,30.00,40.00,Saturday
86,27.81311670629305
87,27.471809362929944
88,27.761070117480196
89,26.75601577908198
90,26.55581275847176
91,26.311741481553793
2,2, 5, 4, 0, 3,40.00,50.00,Saturday
86,27.759644754984767
87,27.404394176048095
88,27.66617944936008
89,26.719867879581896
90,26.513993557980294
91,25.973697280196629
2,2, 5, 4, 0, 3,50.00,60.00,Saturday
86,27.70172469123669
87,27.334746366249989
88,27.557233083850787
89,26.685051800780245
90,26.474000572673373
91,25.717209702947018
2,2, 5, 4, 0, 4, 0.00,10.00,Saturday
86,27.66853624140347
87,27.298673137056416
88,27.48479049430378
89,26.652709586048787
90,26.437943282492474
91,25.923637873956016
2,2, 5, 4, 0, 4,10.00,20.00,Saturday
86,27.619990173611528
87,27.243397310669793
88,27.377411297561677
89,26.615301958273848
90,26.395843072826368
91,25.0835091639566
2,2, 5, 4, 0, 4,20.00,30.00,Saturday
86,27.57699403143899
87,27.192983925752487
88,27.298625380557867
89,26.576388193582497
90,26.352349261449786
91,25.70998450460401
2,2, 5, 4, 0, 4,30.00,40.00,Saturday
86,27.535799968934208
87,27.141649399725347
88,27.253131973894786
89,26.529743375969497
90,26.300493463449408
91,24.434482722560376
2,2, 5, 4, 0, 4,40.00,50.00,Saturday
86,27.498733842146174
87,27.097405879354704
88,27.165099338980029
89,26.485438789223538
90,26.251712688161399
91,25.05493520799613
2,2, 5, 4, 0, 4,50.00,60.00,Saturday
86,27.468770502880504
87,27.05719246377663
88,27.124941453432979
89,26.433072979623384
90,26.19415468188058
91,25.44783854432464
2,2, 5, 4, 0, 5, 0.00,10.00,Saturday
86,27.424049402222264
87,27.002036841588724
88,27.06431238048087
89,26.38078695721812
90,26.13696591566113
91,24.270578569232606
2,2, 5, 4, 0, 5,10.00,20.00,Saturday
86,27.354495742683544
87,26.916082576332255
88,26.93900997364772
89,26.322728145490417
90,26.07355073653539
91,24.92619283941262
2,2, 5, 4, 0, 5,20.00,30.00,Saturday
86,27.342043596729988
87,26.896697428383825
88,26.921661347496465
89,26.270462816950184
90,26.01662620161184
91,25.26148759447876
2,2, 5, 4, 0, 5,30.00,40.00,Saturday
86,27.31656531555503
87,26.86053439653699
88,26.883669202715319
89,26.212358177709228
90,25.953400828064109
91,25.107573346677389
2,2, 5, 4, 0, 5,40.00,50.00,Saturday
86,27.273769569562757
87,26.80837737605014
88,26.818844941664638
89,26.156308807815706
90,25.892493978555508
91,24.803364215078184
2,2, 5, 4, 0, 5,50.00,60.00,Saturday
86,27.212159423165127
87,26.733249266639854
88,26.714643160454128
89,26.09719882533795
90,25.8283408438202
91,25.03608086570963
2,2, 5, 4, 0, 6, 0.00,10.00,Saturday
86,27.15693173369855
87,26.663450495473428
88,26.617357412006947