Program Version,EnergyPlus, Version 9.5.0-de239b2e5f, YMD=2021.12.09 02:52
1,5,Environment Title[],Latitude[deg],Longitude[deg],Time Zone[],Elevation[m]
2,8,Day of Simulation[],Month[],Day of Month[],DST Indicator[1=yes 0=no],Hour[],StartMinute[],EndMinute[],DayType
3,5,Cumulative Day of Simulation[],Month[],Day of Month[],DST Indicator[1=yes 0=no],DayType  ! When Daily Report Variables Requested
4,2,Cumulative Days of Simulation[],Month[]  ! When Monthly Report Variables Requested
5,1,Cumulative Days of Simulation[] ! When Run Period Report Variables Requested
6,1,Calendar Year of Simulation[] ! When Annual Report Variables Requested
7,1,Environment,Site Outdoor Air Drybulb Temperature [C] !TimeStep
87,1,THERMAL ZONE: CUBI_1,Zone Mean Air Temperature [C] !TimeStep
88,1,THERMAL ZONE: CUBI_2,Zone Mean Air Temperature [C] !TimeStep
89,1,THERMAL ZONE: CUBI_JORGE,Zone Mean Air Temperature [C] !TimeStep
90,1,THERMAL ZONE: TECHO_1,Zone Mean Air Temperature [C] !TimeStep
91,1,THERMAL ZONE: TECHO_2,Zone Mean Air Temperature [C] !TimeStep
92,1,THERMAL ZONE: TECHO_JORGE,Zone Mean Air Temperature [C] !TimeStep
End of Data Dictionary
1,RUN PERIOD 1,  18.85, -99.14,  -6.00,1280.00
2,1, 5, 3, 0, 1, 0.00,10.00,Friday
7,23.0
87,28.44873769792787
88,28.351353085041916
89,28.717196711405387
90,27.272241272790688
91,27.187649200575199
92,25.677504982935419
2,1, 5, 3, 0, 1,10.00,20.00,Friday
7,23.0
87,28.406030341779116
88,28.293568503480438
89,28.645618849799484
90,27.24771865014131
91,27.1579772063587
92,26.083554641014687
2,1, 5, 3, 0, 1,20.00,30.00,Friday
7,23.0
87,28.33139540831936
88,28.189856127952387
89,28.510061503702155
90,27.21126925050688
91,27.114715107248708
92,25.668536395244645
2,1, 5, 3, 0, 1,30.00,40.00,Friday
7,22.8
87,28.276107770316405
88,28.11013069577055
89,28.402715609908513
90,27.17711436203697
91,27.073816561304203
92,25.764920499693138
2,1, 5, 3, 0, 1,40.00,50.00,Friday
7,22.7
87,28.268397795341657
88,28.096118147701469
89,28.384437760539634
90,27.14638860162949
91,27.034934772280516
92,25.455809258753239
2,1, 5, 3, 0, 1,50.00,60.00,Friday
7,22.6
87,28.240646829718277
88,28.055557690553248
89,28.32166541191197
90,27.105692266816499
91,26.98723228953223
92,25.737161368589754
2,1, 5, 3, 0, 2, 0.00,10.00,Friday
7,22.5
87,28.189722252949357
88,27.984644621843747
89,28.19930953031981
90,27.05853897562958
91,26.93369662695016
92,25.663382593187813
2,1, 5, 3, 0, 2,10.00,20.00,Friday
7,22.4
87,28.18031504253136
88,27.963667786693017
89,28.196548897265616
90,27.017829480638299
91,26.887097925438398
92,24.977157928365945
2,1, 5, 3, 0, 2,20.00,30.00,Friday
7,22.3
87,28.150445704228173
88,27.918374283125837
89,28.152854502739083
90,26.971771696665536
91,26.835057565852688
92,25.038894036731194
2,1, 5, 3, 0, 2,30.00,40.00,Friday
7,22.4
87,28.115059806630595
88,27.864449975212609
89,28.090478329709943
90,26.918795680898925
91,26.77662366394797
92,25.023006706941478
2,1, 5, 3, 0, 2,40.00,50.00,Friday
7,22.5
87,28.078533486102267
88,27.81167042073195
89,28.024282524623748
90,26.868944942718828
91,26.72089009809376
92,25.31757441626379
2,1, 5, 3, 0, 2,50.00,60.00,Friday
7,22.3
87,28.055583912926637
88,27.78472817718795
89,27.98211739832172
90,26.827022542033274
91,26.673284776516377
92,24.98405413597434
2,1, 5, 3, 0, 3, 0.00,10.00,Friday
7,22.1
87,28.014174722610315
88,27.73446515474015
89,27.90799109183832
90,26.77664593662821
91,26.61653375132949
92,24.828808765156955
2,1, 5, 3, 0, 3,10.00,20.00,Friday
7,22.0
87,27.96346740107802
88,27.669334113041609
89,27.82034845660345
90,26.722028741887209
91,26.555046580244388
92,24.751898879266368
2,1, 5, 3, 0, 3,20.00,30.00,Friday
7,22.0
87,27.93487768931915
88,27.634248738202435
89,27.767415153933358
90,26.679194382137085
91,26.506575734348325
92,25.062214307131478
2,1, 5, 3, 0, 3,30.00,40.00,Friday
7,21.9
87,27.88249232460086
88,27.56433061222264
89,27.682124656738489
90,26.62484496966954
91,26.44545543988704
92,24.596488120996975
2,1, 5, 3, 0, 3,40.00,50.00,Friday
7,21.9
87,27.851089100461388
88,27.526085167508513
89,27.616287263869233
90,26.57812022409071
91,26.39272280575213
92,25.266072465514804
2,1, 5, 3, 0, 3,50.00,60.00,Friday
7,21.7
87,27.81747161073718
88,27.48216784763649
89,27.574228009462734
90,26.529330666156026
91,26.33785781643972
92,24.537517190509314
2,1, 5, 3, 0, 4, 0.00,10.00,Friday
7,21.7
87,27.77491441493976
88,27.428789942156624
89,27.484476682594108
90,26.4778193849653
91,26.28009574383866
92,25.198269551405774
2,1, 5, 3, 0, 4,10.00,20.00,Friday
7,21.8
87,27.740241314532328
88,27.38311337128869
89,27.419832280102506
90,26.4262404955645
91,26.22237713838092
92,25.442058414772406
2,1, 5, 3, 0, 4,20.00,30.00,Friday
7,21.5
87,27.694930674576143
88,27.324950385917096
89,27.347115830775004
90,26.373202594791314
91,26.163284253085878
92,24.713904388202296
2,1, 5, 3, 0, 4,30.00,40.00,Friday
7,21.4
87,27.65035197239895
88,27.268583185166585
89,27.26062566774014
90,26.31969268030104
91,26.1038202453135
92,25.271736517961938
2,1, 5, 3, 0, 4,40.00,50.00,Friday
7,21.1
87,27.598845339950015
88,27.20367043319517
89,27.176578803530814
90,26.264901043145576
91,26.043201181073536
92,24.52137432369398
2,1, 5, 3, 0, 4,50.00,60.00,Friday
7,21.2
87,27.538158628683936
88,27.125607676298089
89,27.065995725727654
90,26.20612903201237
91,25.9783763469705
92,24.741826934286384
2,1, 5, 3, 0, 5, 0.00,10.00,Friday
7,21.0
87,27.503096577643235
88,27.08053046179062
89,27.009454777626965
90,26.15137935952654
91,25.918133477188804
92,24.9217035613833
2,1, 5, 3, 0, 5,10.00,20.00,Friday
7,20.8
87,27.44467447595718
88,27.007149484467005
89,26.90274093816043
90,26.092456431605127
91,25.853559589216326
92,24.830575093403938
2,1, 5, 3, 0, 5,20.00,30.00,Friday
7,20.9
87,27.414467009819917
88,26.963806572406069
89,26.883472919336798
90,26.030720845500043
91,25.78602455874841
92,24.124765524299577
2,1, 5, 3, 0, 5,30.00,40.00,Friday
7,20.8
87,27.379075695319366
88,26.918276535825997
89,26.829639658356077
90,25.977911037158269
91,25.728391705928943
92,24.485315564890607
2,1, 5, 3, 0, 5,40.00,50.00,Friday
7,21.1
87,27.325588492666847
88,26.843128594608836
89,26.770882493735195
90,25.908112250317985
91,25.652420884894249
92,24.11578804398843
2,1, 5, 3, 0, 5,50.00,60.00,Friday
7,20.8
87,27.300756392195998
88,26.80867340217264
89,26.758471588771024
90,25.851240483018907
91,25.590442748954346
92,23.564023580095048
2,1, 5, 3, 0, 6, 0.00,10.00,Friday
7,20.8
87,27.26210826767749
88,26.75579411773631
89,26.726108346639788
90,25.788952379736516
91,25.522635849681508
92,23.77684178607442
2,1, 5, 3, 0, 6,10.00,20.00,Friday
7,20.1
87,27.20044732376939
88,26.6832200332071
89,26.610025496813525
90,25.728598395122029
91,25.4568445766312
92,23.437725884434586
2,1, 5, 3, 0, 6,20.00,30.00,Friday
7,20.1
87,27.146155726056155
88,26.616860722399694
89,26.507288391178009
90,25.670585672336367
91,25.39353870776653
92,23.993945705492107
2,1, 5, 3, 0, 6,30.00,40.00,Friday
7,19.5
87,27.060158392795065
88,26.51550878728868
89,26.336485849936648
90,25.607246371208498
91,25.324398334804586
92,23.883400129010928
2,1, 5, 3, 0, 6,40.00,50.00,Friday
7,19.6
87,27.021044846240494
88,26.46524362779444
89,26.28747978160361
90,25.546125841294989
91,25.25773604298798
92,23.25332979875285
2,1, 5, 3, 0, 6,50.00,60.00,Friday
7,19.5
87,26.984843230622567
88,26.418537428935325
89,26.24514040623862
90,25.491261475133955
91,25.198025384287904
92,23.078527242321696
2,1, 5, 3, 0, 7, 0.00,10.00,Friday
7,19.6
87,26.913916915361825
88,26.327302692762136
89,26.146630469827828
90,25.418812510937607
91,25.119323058982766
92,23.237945926121005
2,1, 5, 3, 0, 7,10.00,20.00,Friday
7,19.9
87,26.868096759366848
88,26.26491470019978
89,26.088498776931766
90,25.352991492729069
91,25.04791583656838
92,23.383237978556648
2,1, 5, 3, 0, 7,20.00,30.00,Friday
7,19.6
87,26.85440227193788
88,26.241177902298579
89,26.094591827669846
90,25.289212357984604
91,24.978788878642008
92,22.465712231950918
2,1, 5, 3, 0, 7,30.00,40.00,Friday
7,19.4
87,26.814239160903307
88,26.18879710473416
89,26.05863350366311
90,25.224991384479944
91,24.909176800435206
92,22.43047559370254
2,1, 5, 3, 0, 7,40.00,50.00,Friday
7,19.5
87,26.766793626094029
88,26.12683913941016
89,26.018724905383079
90,25.156204160571833
91,24.83454682517986
92,22.60289576143308
2,1, 5, 3, 0, 7,50.00,60.00,Friday
7,19.8
87,26.75189133412251
88,26.104747939667037
89,26.018365872175985
90,25.098614216368305
91,24.771921623856128
92,22.91793108589389
2,1, 5, 3, 0, 8, 0.00,10.00,Friday
7,20.1
87,26.71531593795872
88,26.053762648151236
89,25.987517820426498
90,25.032445284215315
91,24.699920448874189
92,23.966467697657565
2,1, 5, 3, 0, 8,10.00,20.00,Friday
7,20.1
87,26.69065110800777
88,26.018642210746756
89,25.967104000007589
90,24.9721200995944
91,24.63420525709499
92,23.946708411833169
2,1, 5, 3, 0, 8,20.00,30.00,Friday
7,20.7
87,26.69687268503991
88,26.012855078105156
89,26.044065987859498
90,24.91247763615044
91,24.569087886300325
92,23.399871039425915
2,1, 5, 3, 0, 8,30.00,40.00,Friday
7,21.2
87,26.732007088093469
88,26.033124121042577
89,26.1932561680664
90,24.855808090918467
91,24.506754318359307
92,23.256144814087699
2,1, 5, 3, 0, 8,40.00,50.00,Friday
7,22.0
87,26.77877591181433
88,26.064007887884153
89,26.34080018735073
90,24.802162795759537
91,24.44689397275281
92,23.518172680092034
2,1, 5, 3, 0, 8,50.00,60.00,Friday
7,22.9
87,26.81402355127827
88,26.08737390253389
89,26.446673112112089
90,24.753342863275259
91,24.391176136016957
92,23.81877253893591
2,1, 5, 3, 0, 9, 0.00,10.00,Friday
7,24.3
87,26.8599323849628
88,26.122689520633516
89,26.573120643789584
90,24.71029445919283
91,24.340559452249616
92,24.318314633103254
2,1, 5, 3, 0, 9,10.00,20.00,Friday
7,24.3
87,26.89267823794272
88,26.14497716221595
89,26.67192773242164
90,24.673718619679524
91,24.29609269560691
92,24.295166163689225
2,1, 5, 3, 0, 9,20.00,30.00,Friday
7,24.4
87,26.909221973419308
88,26.153673240170595
89,26.732681219934137
90,24.643291541970425
91,24.257598217171798
92,24.26516113365682
2,1, 5, 3, 0, 9,30.00,40.00,Friday
7,24.7
87,26.928853242713168
88,26.16639697009139
89,26.796767335951598
90,24.621619030187096
91,24.228745164189968
92,24.303982514065038
2,1, 5, 3, 0, 9,40.00,50.00,Friday
7,25.1
87,26.962535729416929
88,26.194372991251183
89,26.885844874313553
90,24.60680469002532
91,24.20776579501345
92,24.434958319367778
2,1, 5, 3, 0, 9,50.00,60.00,Friday
7,25.4
87,27.001277083100449
88,26.23002884757403
89,26.977833729264814
90,24.597465228132575
91,24.19324882596869
92,24.39229894986871
2,1, 5, 3, 0,10, 0.00,10.00,Friday
7,25.9
87,27.02953910921257
88,26.25736936925963
89,27.189328828822107
90,24.59448276520297
91,24.18658406020222
92,24.721914955141565
2,1, 5, 3, 0,10,10.00,20.00,Friday
7,26.2
87,27.072309497370698
88,26.300803325559757
89,27.419562621255957
90,24.595069795685029
91,24.183755928488805
92,24.889081575700364
2,1, 5, 3, 0,10,20.00,30.00,Friday
7,26.3
87,27.118427715880097
88,26.349862418956545
89,27.588388230490229
90,24.600687200205124
91,24.18651701518701
92,25.026582185764267
2,1, 5, 3, 0,10,30.00,40.00,Friday
7,26.4
87,27.154721702852183
88,26.39669197548723
89,27.677576051405155
90,24.611769354081987
91,24.195805334732957
92,25.069141924024664
2,1, 5, 3, 0,10,40.00,50.00,Friday
7,26.4
87,27.184451591213209
88,26.44202479858866
89,27.734766013545135
90,24.627278503247078
91,24.210117794149157
92,25.312024980669123
2,1, 5, 3, 0,10,50.00,60.00,Friday
7,25.9
87,27.19554981826074
88,26.4623129651347
89,27.76718145388533
90,24.645748615065075
91,24.228006029388476
92,24.916343343260434
2,1, 5, 3, 0,11, 0.00,10.00,Friday
7,26.2
87,27.228490322693653
88,26.50680525355515
89,27.865367487211807
90,24.669757267315629
91,24.251844389674706
92,24.941555862406834
2,1, 5, 3, 0,11,10.00,20.00,Friday
7,26.9
87,27.285583631537745
88,26.58002663796898
89,28.027379470392636
90,24.698774910635927
91,24.28116551053584
92,25.105681742453795
2,1, 5, 3, 0,11,20.00,30.00,Friday
7,27.2
87,27.34536476696374
88,26.657030834861897
89,28.199191784286815
90,24.72889894654884
91,24.311974901764925
92,25.09352178875759
2,1, 5, 3, 0,11,30.00,40.00,Friday
7,27.3
87,27.37609972122242
88,26.6942639472966
89,28.297685118340238
90,24.759331294603997
91,24.343280195666133
92,25.798012264659815
2,1, 5, 3, 0,11,40.00,50.00,Friday
7,27.4
87,27.407294819627354
88,26.735939356963728
89,28.391246605877627
90,24.79109176337277
91,24.376012975007109
92,25.373649731877273
2,1, 5, 3, 0,11,50.00,60.00,Friday
7,27.6
87,27.462177457047316
88,26.808309137056847
89,28.55665637647221
90,24.831743433020426
91,24.417820990623146
92,25.440069922294997
2,1, 5, 3, 0,12, 0.00,10.00,Friday
7,28.5
87,27.52054297652095
88,26.88061457094324
89,28.709484242599115
90,24.872629669825046
91,24.45973766920183
92,26.347950220076706
2,1, 5, 3, 0,12,10.00,20.00,Friday
7,28.0
87,27.574438948817439
88,26.94944260639633
89,28.874706461020318
90,24.915267528650199
91,24.5033984296125
92,26.106979450220455
2,1, 5, 3, 0,12,20.00,30.00,Friday
7,29.1
87,27.6326908771082
88,27.017264688369644
89,29.034011354435024
90,24.962942215381845
91,24.552109722113877
92,27.033108107198616
2,1, 5, 3, 0,12,30.00,40.00,Friday
7,29.2
87,27.70224877572413
88,27.10433473500916
89,29.2189440026396
90,25.0124327197408
91,24.60253757971935
92,27.10009492707315
2,1, 5, 3, 0,12,40.00,50.00,Friday
7,29.9
87,27.785119640828925
88,27.204253518746186
89,29.42967578259415
90,25.06822609034349
91,24.658761653265619
92,27.395458120447935
2,1, 5, 3, 0,12,50.00,60.00,Friday
7,30.5
87,27.87199844596969
88,27.30651146379245
89,29.635535375644897
90,25.125631755198396
91,24.715414877781919
92,27.3608359547181
2,1, 5, 3, 0,13, 0.00,10.00,Friday
7,31.4
87,27.937624863292848
88,27.38019446078151
89,29.782454279598487
90,25.182732148459658
91,24.776099157110897
92,28.375120096541424
2,1, 5, 3, 0,13,10.00,20.00,Friday
7,30.8
87,27.97776946807799
88,27.432125302478853
89,29.882496988054088
90,25.242925553370804
91,24.840437798056607
92,27.40052068904662
2,1, 5, 3, 0,13,20.00,30.00,Friday
7,30.6
87,28.007939031664408
88,27.467161451238576
89,29.961563145414784
90,25.304958488931108
91,24.909744680524399
92,26.906588046802125
2,1, 5, 3, 0,13,30.00,40.00,Friday
7,30.8
87,28.05222527705228
88,27.518792205037767
89,30.082653004033135
90,25.37761737731899
91,24.992033144372564
92,28.447200475441023
2,1, 5, 3, 0,13,40.00,50.00,Friday
7,30.9
87,28.117780417212047
88,27.60402439693078
89,30.226440667895177
90,25.4563826270802
91,25.08128438295003
92,28.203878795404405
2,1, 5, 3, 0,13,50.00,60.00,Friday
7,31.5
87,28.134638799599338
88,27.635836336402528
89,30.275453607872377
90,25.530353436729678
91,25.16297599829148
92,28.738777313562204
2,1, 5, 3, 0,14, 0.00,10.00,Friday
7,31.8
87,28.179035140401245
88,27.701590161775706
89,30.37609663730728
90,25.613680230449274
91,25.255455101479169
92,28.876286238563507
2,1, 5, 3, 0,14,10.00,20.00,Friday
7,32.0
87,28.28331073750669
88,27.831845385424498
89,30.56723430123799
90,25.70320744013185
91,25.3554540118532
92,29.077082923724018
2,1, 5, 3, 0,14,20.00,30.00,Friday
7,31.8
87,28.35177517211496
88,27.91820894903242
89,30.685460814085415
90,25.77967338130182
91,25.442121530127716
92,28.29091030646703
2,1, 5, 3, 0,14,30.00,40.00,Friday
7,31.6
87,28.424426334501854
88,28.01538905976429
89,30.80079028196465
90,25.862169291280286
91,25.536598253366056
92,28.586827846222947
2,1, 5, 3, 0,14,40.00,50.00,Friday
7,32.8
87,28.54955643796834
88,28.170628674251739
89,30.99613162001897
90,25.954278290319544
91,25.64373105084325
92,28.54065136185528
2,1, 5, 3, 0,14,50.00,60.00,Friday
7,33.5
87,28.63970635435833
88,28.280343073433906
89,31.1494120830585
90,26.037082810940594
91,25.743009011465806
92,30.25846793034101
2,1, 5, 3, 0,15, 0.00,10.00,Friday
7,31.8
87,28.602410421762249
88,28.264893449001066
89,31.101291380148319
90,26.121877374429759
91,25.84685360525071
92,29.165050937389315
2,1, 5, 3, 0,15,10.00,20.00,Friday
7,32.4
87,28.643114025880807
88,28.33692855173865
89,31.17220831410215
90,26.208063201857827
91,25.954444394140915
92,29.722136214647337
2,1, 5, 3, 0,15,20.00,30.00,Friday
7,32.8
87,28.743997718311609
88,28.476828333509645
89,31.322258226814414
90,26.306298847739034
91,26.081983092600063
92,28.856531392027259
2,1, 5, 3, 0,15,30.00,40.00,Friday
7,33.7
87,28.883037402957
88,28.657800066168148
89,31.530942764580776
90,26.40265855681716
91,26.20673968450703
92,31.897841614024889
2,1, 5, 3, 0,15,40.00,50.00,Friday
7,32.9
87,28.931784068987957
88,28.74089874649259
89,31.583417816221617
90,26.49569786004836
91,26.3230948473524
92,30.716429818398909
2,1, 5, 3, 0,15,50.00,60.00,Friday
7,33.3
87,29.040038380838334
88,28.914771025358048
89,31.724479601102844
90,26.61498559899171
91,26.467627543298407
92,30.30387062565376
2,1, 5, 3, 0,16, 0.00,10.00,Friday
7,33.9
87,29.126958203739009
88,29.03651335716549
89,31.853734697558538
90,26.700911044638589
91,26.57108938819917
92,30.977433208189255
2,1, 5, 3, 0,16,10.00,20.00,Friday
7,33.6
87,29.250281597828477
88,29.234270567769113
89,32.007014877641498
90,26.83293832778304
91,26.727427644295035
92,31.54359122616117
2,1, 5, 3, 0,16,20.00,30.00,Friday
7,32.9
87,29.247487724886235
88,29.272240830610224
89,31.980339085415879
90,26.91950551837698
91,26.83512191650006
92,30.28923900516132
2,1, 5, 3, 0,16,30.00,40.00,Friday
7,33.3
87,29.276574556375775
88,29.348211763342055
89,32.006912329713689
90,27.00388800930338
91,26.93186662010646
92,30.791797784731544
2,1, 5, 3, 0,16,40.00,50.00,Friday
7,33.5
87,29.32922143205382
88,29.488640131148157
89,32.03569685042926
90,27.148169726056627
91,27.1062765079801
92,31.105618672529699
2,1, 5, 3, 0,16,50.00,60.00,Friday
7,32.9
87,29.324113753646669
88,29.553576357034929
89,31.968478518378388
90,27.26167457733019
91,27.244539973588198
92,30.932313933099559
2,1, 5, 3, 0,17, 0.00,10.00,Friday
7,32.6
87,29.316917414160366
88,29.582610189428729
89,31.926807086490237
90,27.348979065867426
91,27.35166586609216
92,31.899959036478124
2,1, 5, 3, 0,17,10.00,20.00,Friday
7,30.9
87,29.27332837598894
88,29.591186713122874
89,31.73666275880064
90,27.442057734947576
91,27.463692113135357
92,30.61582289594283
2,1, 5, 3, 0,17,20.00,30.00,Friday
7,29.4
87,29.208724306608656
88,29.60819304217442
89,31.436635219377654
90,27.553583048761245
91,27.595262851819038
92,29.348950714399995
2,1, 5, 3, 0,17,30.00,40.00,Friday
7,29.0
87,29.203973472102108
88,29.633539253242227
89,31.34487737212036
90,27.627100737294805
91,27.68040080551505
92,28.98952462673077
2,1, 5, 3, 0,17,40.00,50.00,Friday
7,28.4
87,29.177355443863236
88,29.673282795426727
89,31.197047498789645
90,27.732468977188974
91,27.79983373860385
92,28.54241907120496
2,1, 5, 3, 0,17,50.00,60.00,Friday
7,29.2
87,29.201417550218137
88,29.73745421799864
89,31.261573907360103
90,27.799148981993008
91,27.8735091703289
92,29.110291191071434
2,1, 5, 3, 0,18, 0.00,10.00,Friday
7,28.0
87,29.204907983724575
88,29.755380302038739
89,31.18221097258431
90,27.85025851198008
91,27.929322723529198
92,28.125762728503767
2,1, 5, 3, 0,18,10.00,20.00,Friday
7,26.8
87,29.190292334696794
88,29.75799353897031
89,31.139973454806545
90,27.89402097596184
91,27.976082595545408
92,27.569861067886188
2,1, 5, 3, 0,18,20.00,30.00,Friday
7,26.8
87,29.18215504385992
88,29.768141232247989
89,31.09352738352081
90,27.936196279894586
91,28.020268505756666
92,27.57850187456848
2,1, 5, 3, 0,18,30.00,40.00,Friday
7,27.5
87,29.205021796540046
88,29.79240483780235
89,31.122006282914535
90,27.95996272963567
91,28.044422682789855
92,28.029203297532808
2,1, 5, 3, 0,18,40.00,50.00,Friday
7,28.0
87,29.241894859247809
88,29.829855846370707
89,31.168604159160397
90,27.983648077875338
91,28.067818176649653
92,28.328254256340139
2,1, 5, 3, 0,18,50.00,60.00,Friday
7,28.3
87,29.27133109074532
88,29.85145866492699
89,31.207735225336845
90,27.993683945838396
91,28.076724459654764
92,28.499800121314065
2,1, 5, 3, 0,19, 0.00,10.00,Friday
7,28.1
87,29.280348597460077
88,29.847426387631179
89,31.065231583198718
90,27.99641671796325
91,28.07777849307646
92,28.356716244399018
2,1, 5, 3, 0,19,10.00,20.00,Friday
7,28.4
87,29.2826635313571
88,29.835940715976027
89,30.939396618339435
90,27.9979880830559
91,28.07751368977249
92,28.541956465799097
2,1, 5, 3, 0,19,20.00,30.00,Friday
7,28.3
87,29.274430343964509
88,29.81314056166625
89,30.88144123385995
90,27.999561171983769
91,28.077222439116075
92,28.634966262649415
2,1, 5, 3, 0,19,30.00,40.00,Friday
7,28.1
87,29.25762525399843
88,29.78144125210398
89,30.82851299061307
90,28.000839544401548
91,28.07661638493136
92,28.417718124376063
2,1, 5, 3, 0,19,40.00,50.00,Friday
7,27.9
87,29.2372492259671
88,29.747167584826369
89,30.78656363643577
90,28.00190511844989
91,28.07574108914376
92,28.43914523212583
2,1, 5, 3, 0,19,50.00,60.00,Friday
7,27.8
87,29.214825210248418
88,29.709958357638319
89,30.703638653274586
90,28.002761918314893
91,28.07455680596024
92,28.346400505186144
2,1, 5, 3, 0,20, 0.00,10.00,Friday
7,27.7
87,29.195017230145717
88,29.675599084258289
89,30.62274848110228
90,28.003050792245526
91,28.072679088018753
92,28.267760573409455
2,1, 5, 3, 0,20,10.00,20.00,Friday
7,27.4
87,29.174179481902866
88,29.64115993014288
89,30.560840042132396
90,28.002325090854279
91,28.069643301826589
92,28.304437651108356
2,1, 5, 3, 0,20,20.00,30.00,Friday
7,27.0
87,29.14491259263949
88,29.59892483914954
89,30.47872974910087
90,28.00031260804372
91,28.065184189800044
92,28.10208279441172
2,1, 5, 3, 0,20,30.00,40.00,Friday
7,26.9
87,29.11818326948277
88,29.558970350631385
89,30.407189713547827
90,27.996847322500924
91,28.059222457222768
92,28.14895095848664
2,1, 5, 3, 0,20,40.00,50.00,Friday
7,26.6
87,29.102150233357656
88,29.531777460195508
89,30.341711599216525
90,27.99250284909916
91,28.05332501182189
92,27.66270116897129
2,1, 5, 3, 0,20,50.00,60.00,Friday
7,26.3
87,29.06239298940858
88,29.469358293747218
89,30.205962029155445
90,27.984809676809733
91,28.0420432402096
92,27.337414576473486
2,1, 5, 3, 0,21, 0.00,10.00,Friday
7,26.0
87,29.02201116365999
88,29.406335827068945
89,30.06988435196574
90,27.976141583779726
91,28.02517632680533
92,27.04482906507169
2,1, 5, 3, 0,21,10.00,20.00,Friday
7,26.3
87,29.006492073368688
88,29.369323830564903
89,30.02836143339424
90,27.9628997138501
91,28.002944539540928
92,27.337533726031109
2,1, 5, 3, 0,21,20.00,30.00,Friday
7,26.1
87,28.9998804765161
88,29.340928341755036
89,30.04540226500745
90,27.943221439814026
91,27.97662973781403
92,27.528835238707044
2,1, 5, 3, 0,21,30.00,40.00,Friday
7,26.0
87,28.990176751477713
88,29.307971809805115
89,30.045196176516126
90,27.918899872601487
91,27.946432288121689
92,27.519986043310145
2,1, 5, 3, 0,21,40.00,50.00,Friday
7,26.2
87,28.982166361024569
88,29.283714380005049
89,30.01499108888855
90,27.895777340169948
91,27.917126770400196
92,28.04214303758674
2,1, 5, 3, 0,21,50.00,60.00,Friday
7,25.9
87,28.958299763478214
88,29.23261229727981
89,29.943494106001027
90,27.865327435298555
91,27.880202171787038
92,27.89332747030107
2,1, 5, 3, 0,22, 0.00,10.00,Friday
7,26.1
87,28.9457211305102
88,29.199387586611257
89,29.89531683413683
90,27.840500700294883
91,27.8450605503688
92,27.47280242212572
2,1, 5, 3, 0,22,10.00,20.00,Friday
7,25.9
87,28.913777135593727
88,29.128508850862234
89,29.7870227445218
90,27.809264182973814
91,27.806123686883745
92,27.080547416466226
2,1, 5, 3, 0,22,20.00,30.00,Friday
7,25.3
87,28.868296487134324
88,29.05643523746481
89,29.65617579373231
90,27.785240552975144
91,27.777465233897673
92,26.703911276763415
2,1, 5, 3, 0,22,30.00,40.00,Friday
7,25.3
87,28.834019971883856
88,28.99976345156413
89,29.589987589068909
90,27.758024857793467
91,27.74422171124624
92,27.55782431917504
2,1, 5, 3, 0,22,40.00,50.00,Friday
7,25.4
87,28.817176237054168
88,28.961545030801596
89,29.563379111450617
90,27.730120011418174
91,27.7110448360216
92,27.75647128425846
2,1, 5, 3, 0,22,50.00,60.00,Friday
7,25.2
87,28.81467267317564
88,28.943622544143357
89,29.56191133750336
90,27.702146706250006
91,27.678458656755678
92,26.827636913570204
2,1, 5, 3, 0,23, 0.00,10.00,Friday
7,25.1
87,28.790988515220616
88,28.898398509113965
89,29.511363772983044
90,27.67205786499596
91,27.64379167312515
92,27.09926512304235
2,1, 5, 3, 0,23,10.00,20.00,Friday
7,25.6
87,28.7842916705017
88,28.87480429379374
89,29.484090512722113
90,27.64139639419625
91,27.60830417377823
92,27.647402712059035
2,1, 5, 3, 0,23,20.00,30.00,Friday
7,25.5
87,28.77313240607824
88,28.847362510772468
89,29.45785092689932
90,27.614676956071983
91,27.577241389143056
92,27.140980566381225
2,1, 5, 3, 0,23,30.00,40.00,Friday
7,25.0
87,28.72809776404067
88,28.770765678374766
89,29.326963914222696
90,27.57639026441563
91,27.53304913118658
92,26.66101684207484
2,1, 5, 3, 0,23,40.00,50.00,Friday
7,25.0
87,28.687533820658268
88,28.707349612201975
89,29.21585735312283
90,27.546160338566673
91,27.49790867937791
92,27.164470786925035
2,1, 5, 3, 0,23,50.00,60.00,Friday
7,25.3
87,28.688110346243009
88,28.69572695490151
89,29.220943470525776
90,27.517270909185095
91,27.464321655964065
92,27.52085021605964
2,1, 5, 3, 0,24, 0.00,10.00,Friday
7,25.4
87,28.68366242576233
88,28.676643713658643
89,29.21636688143636
90,27.48825446789592
91,27.430296602700456
92,27.00815982334583
2,1, 5, 3, 0,24,10.00,20.00,Friday
7,25.4
87,28.666786289287399
88,28.63565552508532
89,29.16654792795727
90,27.452326290224876
91,27.388610587598504
92,27.09472269730216
2,1, 5, 3, 0,24,20.00,30.00,Friday
7,25.4
87,28.651443233116895
88,28.60536612253854
89,29.105916936294756
90,27.422036758549376
91,27.35279441003562
92,26.614962545315245
2,1, 5, 3, 0,24,30.00,40.00,Friday
7,25.5
87,28.63116524690071
88,28.564157473274709
89,29.027550420033636
90,27.389689453970843
91,27.3148079864299
92,26.420850750778
2,1, 5, 3, 0,24,40.00,50.00,Friday
7,25.5
87,28.626996523842924
88,28.546492523225216
89,29.04111694411078
90,27.360293075958944
91,27.2796836220719
92,26.840979052840763
2,1, 5, 3, 0,24,50.00,60.00,Friday
7,25.6
87,28.611974072395044
88,28.51348142496781
89,29.017258301985277
90,27.329001042850263
91,27.24267779206441
92,26.928573789344619
2,2, 5, 4, 0, 1, 0.00,10.00,Saturday
7,25.4
87,28.58774582389551
88,28.478464106968663
89,28.944740735359845
90,27.30122076443657
91,27.209098553490237
92,26.50833202250287
2,2, 5, 4, 0, 1,10.00,20.00,Saturday
7,25.0
87,28.536559314275018
88,28.404453872130465
89,28.807327136684078
90,27.269205343885007
91,27.17109698648867
92,26.16421811190567
2,2, 5, 4, 0, 1,20.00,30.00,Saturday
7,24.9
87,28.491951498941746
88,28.340463146477466
89,28.690323759081204
90,27.241398719497537
91,27.13725629564767
92,25.960957113170275
2,2, 5, 4, 0, 1,30.00,40.00,Saturday
7,24.6
87,28.455682340817636
88,28.289409374005368
89,28.61826148551299
90,27.21414552695143
91,27.103457861510387
92,26.002340818962389
2,2, 5, 4, 0, 1,40.00,50.00,Saturday
7,24.7
87,28.431533502796495
88,28.252825321114714
89,28.582276208724477
90,27.186539195023405
91,27.06898842565918
92,26.13100930632107
2,2, 5, 4, 0, 1,50.00,60.00,Saturday
7,24.7
87,28.41275894611286
88,28.2225522834235
89,28.557168136162024
90,27.157431606884175
91,27.033951742844587
92,26.260569095436506
2,2, 5, 4, 0, 2, 0.00,10.00,Saturday
7,24.7
87,28.40300624039012
88,28.20644131418259
89,28.555317401797415
90,27.129637136371707
91,27.00099330381016
92,26.80994521457437
2,2, 5, 4, 0, 2,10.00,20.00,Saturday
7,24.6
87,28.39003239914702
88,28.185910744480169
89,28.541231444954698
90,27.10219793664902
91,26.968879607743064
92,26.216616196850255
2,2, 5, 4, 0, 2,20.00,30.00,Saturday
7,24.7
87,28.368089822670297
88,28.151633659673167
89,28.51209297289979
90,27.066891555201847
91,26.928507618916798
92,26.26401838245944
2,2, 5, 4, 0, 2,30.00,40.00,Saturday
7,24.6
87,28.335460986223344
88,28.106358988345506
89,28.460073312965937
90,27.031414550166148
91,26.88824901163423
92,26.276500559994525
2,2, 5, 4, 0, 2,40.00,50.00,Saturday
7,24.6
87,28.304522534178579
88,28.06362251931148
89,28.407014688978149
90,27.000347173760554
91,26.85235108993751
92,26.299205930388639
2,2, 5, 4, 0, 2,50.00,60.00,Saturday
7,24.5
87,28.277703594503657
88,28.024939729957646
89,28.358655180527117
90,26.970194200392095
91,26.817037957560765
92,26.132752440163526
2,2, 5, 4, 0, 3, 0.00,10.00,Saturday
7,24.3
87,28.25370687121116
88,27.996334159794665
89,28.307174044963455
90,26.943333645941136
91,26.78543574779713
92,26.608601045928294
2,2, 5, 4, 0, 3,10.00,20.00,Saturday
7,23.9
87,28.198030861149428
88,27.924522837176313
89,28.19231038118706
90,26.90946610831833
91,26.745726506909429
92,26.414154518982785
2,2, 5, 4, 0, 3,20.00,30.00,Saturday
7,23.6
87,28.145519724975267
88,27.8563758601607
89,28.076210385053064
90,26.879612388054718
91,26.71057280887858
92,25.911419357950245
2,2, 5, 4, 0, 3,30.00,40.00,Saturday
7,23.4
87,28.10196594495872
88,27.799161919757034
89,27.98842510431419
90,26.847594430979528
91,26.67310017162646
92,26.333537206262699
2,2, 5, 4, 0, 3,40.00,50.00,Saturday
7,23.3
87,28.066576574797116
88,27.75177024275868
89,27.932107551356748
90,26.814751459373995
91,26.63495594267068
92,26.131256225805499
2,2, 5, 4, 0, 3,50.00,60.00,Saturday
7,22.8
87,28.01876271625541
88,27.693167960744768
89,27.844485143529146
90,26.78020061558743
91,26.595142506709896
92,25.939960003676054
2,2, 5, 4, 0, 4, 0.00,10.00,Saturday
7,22.4
87,27.957080216390915
88,27.621157417251227
89,27.719111112645405
90,26.742273477274144
91,26.55177046955217
92,26.115546901445137
2,2, 5, 4, 0, 4,10.00,20.00,Saturday
7,22.1
87,27.916265699894518
88,27.575168390473914
89,27.625990748704348
90,26.70638370612695
91,26.511021808662986
92,25.012031445768863
2,2, 5, 4, 0, 4,20.00,30.00,Saturday
7,21.8
87,27.86046353945539
88,27.5096195069567
89,27.519153650839458
90,26.665883421124599
91,26.46542451190585
92,25.164865353840253
2,2, 5, 4, 0, 4,30.00,40.00,Saturday
7,21.6
87,27.828648707581555
88,27.468426416881827
89,27.49726252861568
90,26.62062727429672
91,26.414812886075379
92,24.56966660863299
2,2, 5, 4, 0, 4,40.00,50.00,Saturday
7,21.7
87,27.780675172764597
88,27.40843101434944
89,27.407957718226048
90,26.57376017931344
91,26.362867861879577
92,24.856592413781319
2,2, 5, 4, 0, 4,50.00,60.00,Saturday
7,21.9
87,27.759284615623046
88,27.37926319121578
89,27.37228309428488