Program Version,EnergyPlus, Version 9.5.0-de239b2e5f, YMD=2021.12.08 23:18
1,5,Environment Title[],Latitude[deg],Longitude[deg],Time Zone[],Elevation[m]
2,8,Day of Simulation[],Month[],Day of Month[],DST Indicator[1=yes 0=no],Hour[],StartMinute[],EndMinute[],DayType
3,5,Cumulative Day of Simulation[],Month[],Day of Month[],DST Indicator[1=yes 0=no],DayType  ! When Daily Report Variables Requested
4,2,Cumulative Days of Simulation[],Month[]  ! When Monthly Report Variables Requested
5,1,Cumulative Days of Simulation[] ! When Run Period Report Variables Requested
6,1,Calendar Year of Simulation[] ! When Annual Report Variables Requested
86,1,THERMAL ZONE: CUBI_1,Zone Mean Air Temperature [C] !TimeStep
87,1,THERMAL ZONE: CUBI_2,Zone Mean Air Temperature [C] !TimeStep
88,1,THERMAL ZONE: CUBI_JORGE,Zone Mean Air Temperature [C] !TimeStep
89,1,THERMAL ZONE: TECHO_1,Zone Mean Air Temperature [C] !TimeStep
90,1,THERMAL ZONE: TECHO_2,Zone Mean Air Temperature [C] !TimeStep
91,1,THERMAL ZONE: TECHO_JORGE,Zone Mean Air Temperature [C] !TimeStep
End of Data Dictionary
1,RUN PERIOD 1,  18.85, -99.14,  -6.00,1280.00
2,1, 5, 3, 0, 1, 0.00,10.00,Friday
86,28.353210383846155
87,28.33413361300906
88,26.876804213339218
89,27.246894385654064
90,27.183271302514386
91,25.330326108427465
2,1, 5, 3, 0, 1,10.00,20.00,Friday
86,28.24798457572521
87,28.201631023832044
88,26.83023886035931
89,27.21739927888843
90,27.14840340812577
91,25.7649948460809
2,1, 5, 3, 0, 1,20.00,30.00,Friday
86,28.24939322508601
87,28.19299343859656
88,27.21609906191786
89,27.190342034236239
90,27.115717159899718
91,25.46903019216584
2,1, 5, 3, 0, 1,30.00,40.00,Friday
86,28.224006148420828
87,28.15261288789837
88,27.172958020642658
89,27.15423610158029
90,27.072992373352716
91,25.601605879423344
2,1, 5, 3, 0, 1,40.00,50.00,Friday
86,28.186299528946223
87,28.10264288268864
88,27.120175933248015
89,27.11873376718858
90,27.030155810838349
91,25.274099712703749
2,1, 5, 3, 0, 1,50.00,60.00,Friday
86,28.126356431159978
87,28.016147644577484
88,26.904338813183299
89,27.075184630634476
90,26.979287976102485
91,25.485678356337936
2,1, 5, 3, 0, 2, 0.00,10.00,Friday
86,28.080819156968553
87,27.95015957734799
88,26.48258177666439
89,27.034346175259864
90,26.931853795455859
91,25.535480402685626
2,1, 5, 3, 0, 2,10.00,20.00,Friday
86,28.07659413533214
87,27.936943083621814
88,27.03701600867133
89,26.993077330923506
90,26.884178309415526
91,24.772402508637318
2,1, 5, 3, 0, 2,20.00,30.00,Friday
86,28.04983226855085
87,27.897161994060796
88,27.28389347441013
89,26.944792120584795
90,26.82977115889473
91,24.837082211312564
2,1, 5, 3, 0, 2,30.00,40.00,Friday
86,28.01534050145772
87,27.845522348124825
88,27.272186441499856
89,26.891852263877476
90,26.77142118426119
91,24.831046301339467
2,1, 5, 3, 0, 2,40.00,50.00,Friday
86,27.99374576879325
87,27.817309585340916
88,26.989347781699065
89,26.849649217140756
90,26.723800861485878
91,25.12497431218016
2,1, 5, 3, 0, 2,50.00,60.00,Friday
86,27.943585299482569
87,27.75004101641973
88,26.809907773837
89,26.795372787350943
90,26.662945647220107
91,24.841707581486994
2,1, 5, 3, 0, 3, 0.00,10.00,Friday
86,27.89386582711968
87,27.6856253705234
88,26.785384743909544
89,26.745521630224958
90,26.60673857751547
91,24.649033358690045
2,1, 5, 3, 0, 3,10.00,20.00,Friday
86,27.85123559547033
87,27.63265964233094
88,26.77248848881539
89,26.69593923892519
90,26.550717102124727
91,24.549507189273606
2,1, 5, 3, 0, 3,20.00,30.00,Friday
86,27.827552139942484
87,27.60586483045875
88,26.438600373398516
89,26.652459557465006
90,26.501517534259869
91,24.910095654191268
2,1, 5, 3, 0, 3,30.00,40.00,Friday
86,27.799703936365419
87,27.568899788246339
88,26.678516288244276
89,26.603884392608224
90,26.44678718545469
91,24.337157347656544
2,1, 5, 3, 0, 3,40.00,50.00,Friday
86,27.757167115643676
87,27.51701282967604
88,26.11544519237303
89,26.552967143068594
90,26.389459582284148
91,25.10645964941709
2,1, 5, 3, 0, 3,50.00,60.00,Friday
86,27.721211972264628
87,27.470528233042417
88,26.209627302031998
89,26.502572097141618
90,26.332788225160308
91,24.34155542676789
2,1, 5, 3, 0, 4, 0.00,10.00,Friday
86,27.675522556778249
87,27.413164244513945
88,25.79921029991868
89,26.45114981947994
90,26.27519826438874
91,25.040213165455798
2,1, 5, 3, 0, 4,10.00,20.00,Friday
86,27.64026044826105
87,27.366824710410716
88,25.636576877096958
89,26.399170798615889
90,26.217019075409675
91,25.37620147163627
2,1, 5, 3, 0, 4,20.00,30.00,Friday
86,27.594088736256336
87,27.30766102701317
88,25.583209414130918
89,26.346574885193865
90,26.15846720049032
91,24.58291626531516
2,1, 5, 3, 0, 4,30.00,40.00,Friday
86,27.551711176519996
87,27.254247059133506
88,25.33718252099972
89,26.295244013866104
90,26.101404453659158
91,25.161581597273775
2,1, 5, 3, 0, 4,40.00,50.00,Friday
86,27.49663584354451
87,27.184880804115328
88,25.258614030983087
89,26.237627801467867
90,26.037725850208298
91,24.369153215996179
2,1, 5, 3, 0, 4,50.00,60.00,Friday
86,27.43461667395874
87,27.105325435137258
88,25.020274934990938
89,26.178582189022714
90,25.97261697571541
91,24.3157501903184
2,1, 5, 3, 0, 5, 0.00,10.00,Friday
86,27.396841323318005
87,27.057114495680567
88,24.94692772367177
89,26.12233390442865
90,25.910735710255048
91,24.80648195274074
2,1, 5, 3, 0, 5,10.00,20.00,Friday
86,27.35426957056785
87,27.00475554931546
88,24.709926178642644
89,26.071191624793788
90,25.854626225981364
91,24.339172545858675
2,1, 5, 3, 0, 5,20.00,30.00,Friday
86,27.29064820049222
87,26.919710564299597
88,24.893149099225654
89,26.002835372929185
90,25.7800067705626
91,24.062103705503796
2,1, 5, 3, 0, 5,30.00,40.00,Friday
86,27.247722541261717
87,26.86137008745849
88,24.914219163793079
89,25.94359426988668
90,25.71537526848541
91,24.228954485503956
2,1, 5, 3, 0, 5,40.00,50.00,Friday
86,27.216637112239
87,26.817812846759208
88,24.928398486747967
89,25.88194826701865
90,25.648245100770695
91,24.020240323811458
2,1, 5, 3, 0, 5,50.00,60.00,Friday
86,27.19100375717294
87,26.783052912224418
88,25.163025576104759
89,25.82418275052376
90,25.58531542509754
91,23.365945462082434
2,1, 5, 3, 0, 6, 0.00,10.00,Friday
86,27.151216626772525
87,26.729700390732803
88,25.263427926856747
89,25.761447476105908
90,25.517070385301158
91,23.579745444696998
2,1, 5, 3, 0, 6,10.00,20.00,Friday
86,27.09189026978904
87,26.66086762539218
88,24.86379768812903
89,25.701650983061339
90,25.451900139032298
91,23.24844357729353
2,1, 5, 3, 0, 6,20.00,30.00,Friday
86,27.036907000277926
87,26.59452782996198
88,24.52469161671631
89,25.64328647029375
90,25.38826478994074
91,23.866939068042816
2,1, 5, 3, 0, 6,30.00,40.00,Friday
86,26.972599193574824
87,26.52067119823167
88,24.13979399030092
89,25.584950335403798
90,25.32456352062269
91,23.705522799429013
2,1, 5, 3, 0, 6,40.00,50.00,Friday
86,26.921478286326939
87,26.456450580042096
88,24.20999249915586
89,25.522358152982777
90,25.256397230777599
91,23.098142078083705
2,1, 5, 3, 0, 6,50.00,60.00,Friday
86,26.879743389498196
87,26.403747077858946
88,24.24689721092127
89,25.46287973950873
90,25.191657833002929
91,22.876986179718644
2,1, 5, 3, 0, 7, 0.00,10.00,Friday
86,26.803574500441596
87,26.307499036269605
88,24.18078463601131
89,25.391513075404057
90,25.11426146116608
91,23.05817546338791
2,1, 5, 3, 0, 7,10.00,20.00,Friday
86,26.756069549699359
87,26.24416486705767
88,24.167048323734144
89,25.32578286246335
90,25.042994800344496
91,23.214716199429409
2,1, 5, 3, 0, 7,20.00,30.00,Friday
86,26.742464365447284
87,26.221282469963055
88,24.719006322552468
89,25.261795892471218
90,24.973651863688955
91,22.23607231205579
2,1, 5, 3, 0, 7,30.00,40.00,Friday
86,26.702197934643679
87,26.16957838574875
88,24.831888226955834
89,25.19751522933052
90,24.904024856223456
91,22.203028563590295
2,1, 5, 3, 0, 7,40.00,50.00,Friday
86,26.65398002221393
87,26.10770952315505
88,24.74404838032277
89,25.128678830602334
90,24.829417934480636
91,22.396678787737327
2,1, 5, 3, 0, 7,50.00,60.00,Friday
86,26.638540761711
87,26.085464183772176
88,24.499428886596144
89,25.07105885673458
90,24.766786561775807
91,22.73489616969165
2,1, 5, 3, 0, 8, 0.00,10.00,Friday
86,26.60107385755858
87,26.034416109913154
88,24.031013426728259
89,25.00477153815616
90,24.694768576590044
91,23.319004244136928
2,1, 5, 3, 0, 8,10.00,20.00,Friday
86,26.584906378835368
87,26.01154309559961
88,23.94283483702011
89,24.946276661218947
90,24.63108882799582
91,23.687337403990285
2,1, 5, 3, 0, 8,20.00,30.00,Friday
86,26.595620047914758
87,26.01336664598891
88,24.30027257321332
89,24.89123771703025
90,24.571046979488018
91,23.229320876368996
2,1, 5, 3, 0, 8,30.00,40.00,Friday
86,26.614807852508588
87,26.01956685936318
88,24.879371642969735
89,24.83199229731644
90,24.506009742000523
91,22.98258176614923
2,1, 5, 3, 0, 8,40.00,50.00,Friday
86,26.648038495981099
87,26.040551468697
88,25.167610269174675
89,24.78069016287822
90,24.44883615160714
91,23.45331371760652
2,1, 5, 3, 0, 8,50.00,60.00,Friday
86,26.686134305789328
87,26.06395508935357
88,25.392290913988285
89,24.727063011210097
90,24.38800338318885
91,23.72638108599183
2,1, 5, 3, 0, 9, 0.00,10.00,Friday
86,26.725853271784623
87,26.09508892383691
88,25.62510250185973
89,24.684395684339955
90,24.337906996173048
91,24.191858262102984
2,1, 5, 3, 0, 9,10.00,20.00,Friday
86,26.762078963318648
87,26.119590058610944
88,25.85351029322774
89,24.64736762843219
90,24.293061986684064
91,24.17160177279072
2,1, 5, 3, 0, 9,20.00,30.00,Friday
86,26.78529221284316
87,26.132503212781385
88,25.945588409286136
89,24.61482929563506
90,24.25228988588017
91,24.155555189394744
2,1, 5, 3, 0, 9,30.00,40.00,Friday
86,26.80769945508982
87,26.147190890242177
88,26.055775670063264
89,24.592894672551226
90,24.223247634460419
91,24.207256255178128
2,1, 5, 3, 0, 9,40.00,50.00,Friday
86,26.84037296507333
87,26.175006911887125
88,26.185561149503937
89,24.57829574508501
90,24.202617173529466
91,24.37064309909636
2,1, 5, 3, 0, 9,50.00,60.00,Friday
86,26.8775856458874
87,26.2100065546574
88,26.27022652153918
89,24.568841537394439
90,24.18807662876903
91,24.205411744184997
2,1, 5, 3, 0,10, 0.00,10.00,Friday
86,26.906584314288169
87,26.2371057302488
88,26.54328297567639
89,24.565705034641959
90,24.18133093959625
91,24.713676588843616
2,1, 5, 3, 0,10,10.00,20.00,Friday
86,26.950164989655268
87,26.28038964050268
88,26.826196483161629
89,24.566188153633747
90,24.178494573894043
91,24.88018568561966
2,1, 5, 3, 0,10,20.00,30.00,Friday
86,26.99641583084019
87,26.32930840760409
88,27.052632353691317
89,24.571698390050938
90,24.18125125854179
91,25.015385280471699
2,1, 5, 3, 0,10,30.00,40.00,Friday
86,27.033090013179448
87,26.37602855877819
88,27.04352459884716
89,24.58267292389134
90,24.190524629563464
91,25.05469375817694
2,1, 5, 3, 0,10,40.00,50.00,Friday
86,27.063357517367188
87,26.421218573549575
88,26.970296717222746
89,24.59807705874316
90,24.20482312876129
91,25.324290235350209
2,1, 5, 3, 0,10,50.00,60.00,Friday
86,27.074434624247993
87,26.441587052149996
88,27.009401355082937
89,24.616441544486628
90,24.222699222515077
91,24.856093818715487
2,1, 5, 3, 0,11, 0.00,10.00,Friday
86,27.10709178101733
87,26.486168272088944
88,27.17203684080479
89,24.640351885503234
90,24.246527022034355
91,24.915996151931716
2,1, 5, 3, 0,11,10.00,20.00,Friday
86,27.16366740629299
87,26.559564631433159
88,27.389257313802714
89,24.66926580814358
90,24.27583695981525
91,25.00982752930794
2,1, 5, 3, 0,11,20.00,30.00,Friday
86,27.22377187713662
87,26.63675373572238
88,27.605839546937689
89,24.69929355319149
90,24.306636166395813
91,24.956196988883496
2,1, 5, 3, 0,11,30.00,40.00,Friday
86,27.256447810428516
87,26.67621699869467
88,27.781389798906674
89,24.729992982471175
90,24.338315080812877
91,25.811635939730118
2,1, 5, 3, 0,11,40.00,50.00,Friday
86,27.286739786872109
87,26.71638395984595
88,27.848852499201393
89,24.761530665951289
90,24.370919793850804
91,25.35036948768366
2,1, 5, 3, 0,11,50.00,60.00,Friday
86,27.34118662152401
87,26.78759893785729
88,28.002899900170815
89,24.80178468374029
90,24.412404417003275
91,25.355167032747596
2,1, 5, 3, 0,12, 0.00,10.00,Friday
86,27.400542632595479
87,26.86025328413357
88,28.332482179592185
89,24.842580101123248
90,24.454344923446535
91,26.387197425581158
2,1, 5, 3, 0,12,10.00,20.00,Friday
86,27.455023887907008
87,26.92935492511139
88,28.48132743678781
89,24.885136849931017
90,24.498003884276444
91,26.183883281763408
2,1, 5, 3, 0,12,20.00,30.00,Friday
86,27.513140761691436
87,26.99694194396692
88,28.69382968188064
89,24.932640901675577
90,24.546662037453534
91,27.110883484768985
2,1, 5, 3, 0,12,30.00,40.00,Friday
86,27.583400930632278
87,27.083955181334305
88,28.97332851011419
89,24.982027402242566
90,24.59706440679153
91,27.19369708851326
2,1, 5, 3, 0,12,40.00,50.00,Friday
86,27.666944527110048
87,27.1838890427879
88,29.257342946135944
89,25.037698054009625
90,24.65323843065361
91,27.48061234772943
2,1, 5, 3, 0,12,50.00,60.00,Friday
86,27.754534539255375
87,27.28621516566167
88,29.552642625932035
89,25.094943170565967
90,24.710293815175775
91,27.409496397583007
2,1, 5, 3, 0,13, 0.00,10.00,Friday
86,27.820281956223949
87,27.359787876183498
88,29.794918755250749
89,25.151911689066698
90,24.770801779967877
91,28.49572258101281
2,1, 5, 3, 0,13,10.00,20.00,Friday
86,27.89628401955907
87,27.453357916534825
88,30.019431004277963
89,25.21644428100326
90,24.83926867080487
91,27.54115358589758
2,1, 5, 3, 0,13,20.00,30.00,Friday
86,27.908337745445619
87,27.469105537110644
88,29.95887195882958
89,25.27443015622811
90,24.905207014200287
91,27.05726009975666
2,1, 5, 3, 0,13,30.00,40.00,Friday
86,27.943592198906147
87,27.51201905835974
88,29.995521641903748
89,25.34558990513137
90,24.987129532576625
91,28.49278566884931
2,1, 5, 3, 0,13,40.00,50.00,Friday
86,28.00513735673694
87,27.590739400885516
88,30.079251366949334
89,25.426359994328757
90,25.07648806794602
91,28.298270521807674
2,1, 5, 3, 0,13,50.00,60.00,Friday
86,28.021767179016444
87,27.62089084912489
88,30.111355428625147
89,25.50045044448577
90,25.15792827548055
91,28.854209671090378
2,1, 5, 3, 0,14, 0.00,10.00,Friday
86,28.065892207237149
87,27.684899179532648
88,30.319571576644294
89,25.583941778135015
90,25.2503842551639
91,28.98493460984131
2,1, 5, 3, 0,14,10.00,20.00,Friday
86,28.169925168860716
87,27.81354957999621
88,30.478479187970199
89,25.673788756001298
90,25.35043263241749
91,29.192397981871378
2,1, 5, 3, 0,14,20.00,30.00,Friday
86,28.23869035491196
87,27.89966084957265
88,30.726023338783809
89,25.750406829988838
90,25.43709530850438
91,28.341645166131074
2,1, 5, 3, 0,14,30.00,40.00,Friday
86,28.281843251596617
87,27.96035555624224
88,30.670443480324495
89,25.823175425526189
90,25.52050094701672
91,28.74761069941755
2,1, 5, 3, 0,14,40.00,50.00,Friday
86,28.431438047460966
87,28.145228887244639
88,31.049578199384088
89,25.924631780695358
90,25.637882996935966
91,28.580197672847004
2,1, 5, 3, 0,14,50.00,60.00,Friday
86,28.520950056926126
87,28.252885059951958
88,31.137263921195165
89,26.005348591727317
90,25.734592631734665
91,30.422307007394097
2,1, 5, 3, 0,15, 0.00,10.00,Friday
86,28.48804552592921
87,28.243995359688485
88,31.023188444044619
89,26.09434965408862
90,25.84320750724049
91,29.27261368372372
2,1, 5, 3, 0,15,10.00,20.00,Friday
86,28.530644484896379
87,28.316897299871309
88,31.1263888650454
89,26.180448635186644
90,25.950349316851964
91,29.838076898775449
2,1, 5, 3, 0,15,20.00,30.00,Friday
86,28.633495013849275
87,28.457762972980306
88,31.400817149290437
89,26.278926182576009
90,26.077978411960659
91,28.90476446503517
2,1, 5, 3, 0,15,30.00,40.00,Friday
86,28.77512097626172
87,28.640142730200077
88,32.128791827956188
89,26.37638048871556
90,26.202759835346943
91,32.08325416703311
2,1, 5, 3, 0,15,40.00,50.00,Friday
86,28.82441183705286
87,28.721966525223345
88,31.97578099534647
89,26.470501230118268
90,26.318853755582297
91,30.897843303065156
2,1, 5, 3, 0,15,50.00,60.00,Friday
86,28.933835823346585
87,28.897515086204817
88,31.869084603297887
89,26.592503412688968
90,26.463018576118267
91,30.419690935513338
2,1, 5, 3, 0,16, 0.00,10.00,Friday
86,29.061213490510569
87,29.081257728511884
88,32.24435908244632
89,26.69891227655765
90,26.58933870697466
91,31.308387067115104
2,1, 5, 3, 0,16,10.00,20.00,Friday
86,29.093717685651695
87,29.144289662810285
88,32.44079561895708
89,26.782002777572737
90,26.693134530425519
91,31.689718013482226
2,1, 5, 3, 0,16,20.00,30.00,Friday
86,29.12476712059786
87,29.230518080996317
88,32.11829658818064
89,26.882261815900674
90,26.82145098465837
91,30.458226219206887
2,1, 5, 3, 0,16,30.00,40.00,Friday
86,29.167706602620436
87,29.32377123796652
88,32.21980138764558
89,26.97897763068091
90,26.926345553716194
91,30.893858387183785
2,1, 5, 3, 0,16,40.00,50.00,Friday
86,29.231011758547284
87,29.4736783232848
88,32.297593227785487
89,27.123856853447415
90,27.101911370599038
91,31.24747701204528
2,1, 5, 3, 0,16,50.00,60.00,Friday
86,29.228739117098355
87,29.53838319423546
88,32.18841438639153
89,27.235991963790864
90,27.239617794702935
91,31.05207335158528
2,1, 5, 3, 0,17, 0.00,10.00,Friday
86,29.22103162791445
87,29.565493988056919
88,32.29091129093256
89,27.323740158118445
90,27.346739618862146
91,31.977956365545354
2,1, 5, 3, 0,17,10.00,20.00,Friday
86,29.177343363204935
87,29.57343542051431
88,31.194718502887825
89,27.41685842539934
90,27.45876882794652
91,30.64655346157532
2,1, 5, 3, 0,17,20.00,30.00,Friday
86,29.111539055773638
87,29.589652559431486
88,30.15012430564407
89,27.52818455582916
90,27.590266133995504
91,29.3466375585607
2,1, 5, 3, 0,17,30.00,40.00,Friday
86,29.107307113680244
87,29.61507272173922
88,29.824731866232847
89,27.60192942053444
90,27.6754399761901
91,28.984134120139907
2,1, 5, 3, 0,17,40.00,50.00,Friday
86,29.081285626509908
87,29.654678649647744
88,29.685980711700794
89,27.707105319538685
90,27.794806196615875
91,28.510885824801709
2,1, 5, 3, 0,17,50.00,60.00,Friday
86,29.105464576444576
87,29.718749403157614
88,30.118330556366396
89,27.773845323831396
90,27.868474974587199
91,29.116479288327889
2,1, 5, 3, 0,18, 0.00,10.00,Friday
86,29.109783604910179
87,29.73677656701131
88,29.394748968503384
89,27.825121575364535
90,27.924304056871557
91,28.092769313795935
2,1, 5, 3, 0,18,10.00,20.00,Friday
86,29.095675191788265
87,29.73945911219761
88,29.28786877111792
89,27.86901602566671
90,27.97109628508837
91,27.454077793182948
2,1, 5, 3, 0,18,20.00,30.00,Friday
86,29.088121882027179
87,29.749687640563427
88,29.201548132346394
89,27.911213679910447
90,28.015257218173415
91,27.46189312348784
2,1, 5, 3, 0,18,30.00,40.00,Friday
86,29.111225708454155
87,29.773932589487936
88,29.4284609251913
89,27.93507097581226
90,28.03939631132846
91,27.946018089961578
2,1, 5, 3, 0,18,40.00,50.00,Friday
86,29.148632995018809
87,29.811328244873768
88,29.69152035830775
89,27.95875408285051
90,28.062759203995279
91,28.26628417844818
2,1, 5, 3, 0,18,50.00,60.00,Friday
86,29.178444923378799
87,29.832859349368758
88,29.85544134614273
89,27.9688570284214
90,28.071654044420979
91,28.454198157222299
2,1, 5, 3, 0,19, 0.00,10.00,Friday
86,29.18771390365278
87,29.828821630862366
88,29.663780082765109
89,27.971702391564535
90,28.07270632213685
91,28.304412306108657
2,1, 5, 3, 0,19,10.00,20.00,Friday
86,29.190031768706854
87,29.81735673079116
88,29.66324684370226
89,27.973375773426338
90,28.072436467134293
91,28.500674442120955
2,1, 5, 3, 0,19,20.00,30.00,Friday
86,29.181645837438027
87,29.79455440166823
88,29.87375277122799
89,27.975030214794076
90,28.07213527647922
91,28.57134319034162
2,1, 5, 3, 0,19,30.00,40.00,Friday
86,29.16475728739934
87,29.76289896163048
88,29.796124227726293
89,27.976385144518607
90,28.071517741243487
91,28.352024975757769
2,1, 5, 3, 0,19,40.00,50.00,Friday
86,29.1441177724656
87,29.728680767115244
88,29.829175926539525
89,27.97752928211181
90,28.070630379915806
91,28.352442232794464
2,1, 5, 3, 0,19,50.00,60.00,Friday
86,29.121513951443967
87,29.691562433485787
88,29.65935342858419
89,27.978460769652103
90,28.069431501949145
91,28.252822737665054
2,1, 5, 3, 0,20, 0.00,10.00,Friday
86,29.10140521809387
87,29.657288148700638
88,29.576002113241655
89,27.978814274280198
90,28.067534236949166
91,28.172491605252114
2,1, 5, 3, 0,20,10.00,20.00,Friday
86,29.07999251176299
87,29.62292387106916
88,29.63416939487605
89,27.978141845726367
90,28.064471704738336
91,28.180975721970169
2,1, 5, 3, 0,20,20.00,30.00,Friday
86,29.050469523124908
87,29.5808162762988
88,29.48360326638393
89,27.976170482339645
90,28.059974707600678
91,27.954209896106048
2,1, 5, 3, 0,20,30.00,40.00,Friday
86,29.023506450659327
87,29.541011905862537
88,29.384996284300589
89,27.972728095337297
90,28.053953289189594
91,27.980727951814438
2,1, 5, 3, 0,20,40.00,50.00,Friday
86,29.00763821452404
87,29.51390732643209
88,29.065657609703686
89,27.968347295607438
90,28.047933261147116
91,27.51256809685856
2,1, 5, 3, 0,20,50.00,60.00,Friday
86,28.967968984289138
87,29.451787858114849
88,28.62096421549616
89,27.960597260082737
90,28.03738732714792
91,27.190371423238447
2,1, 5, 3, 0,21, 0.00,10.00,Friday
86,28.93063848121063
87,29.39401171139454
88,28.22541662207742
89,27.951946196313409
90,28.020646016556968
91,26.869366208933429
2,1, 5, 3, 0,21,10.00,20.00,Friday
86,28.915610597182107
87,29.358084001804558
88,28.37220056803217
89,27.941076410951504
90,27.998682842539567
91,27.216365205098655
2,1, 5, 3, 0,21,20.00,30.00,Friday
86,28.909502490402738
87,29.337850078445088
88,28.967521371990438
89,27.923735175552474
90,27.97644710858543
91,27.344989737041755
2,1, 5, 3, 0,21,30.00,40.00,Friday
86,28.899936211739357
87,29.311207964966525
88,29.13531719906631
89,27.90354805405436
90,27.94981903367143
91,27.37689134263664
2,1, 5, 3, 0,21,40.00,50.00,Friday
86,28.882947529313996
87,29.259554177812686
88,29.207069671942958
89,27.87161824966912
90,27.908599562508216
91,27.849249376789019
2,1, 5, 3, 0,21,50.00,60.00,Friday
86,28.856899283456849
87,29.2001930980968
88,28.98379943354363
89,27.842216896953237
90,27.870969143272544
91,27.670143177407785
2,1, 5, 3, 0,22, 0.00,10.00,Friday
86,28.847670099077676
87,29.177347133149575
88,28.70533831620419
89,27.81801664635256
90,27.840636186064015
91,27.275370892166806
2,1, 5, 3, 0,22,10.00,20.00,Friday
86,28.8175511793083
87,29.112140998814899
88,28.299261030934738
89,27.784758574813176
90,27.801462296443615
91,26.916860132186856
2,1, 5, 3, 0,22,20.00,30.00,Friday
86,28.771848636233217
87,29.03931407828074
88,27.920964832377544
89,27.7602152391731
90,27.772047193547043
91,26.509675869504237
2,1, 5, 3, 0,22,30.00,40.00,Friday
86,28.736980196158016
87,28.981669828701678
88,28.084277016295326
89,27.73272465241824
90,27.73906714788894
91,27.251423225046126
2,1, 5, 3, 0,22,40.00,50.00,Friday
86,28.719609078476866
87,28.94306159806965
88,28.240745579390305
89,27.704462631454779
90,27.70586131885522
91,27.327815468338917
2,1, 5, 3, 0,22,50.00,60.00,Friday
86,28.716868563534598
87,28.926273051174844
88,28.624360951323334
89,27.67681050519313
90,27.673745498538226
91,26.73261985092271
2,1, 5, 3, 0,23, 0.00,10.00,Friday
86,28.692807469635807
87,28.880856893733819
88,28.536265193124458
89,27.64619335139565
90,27.638712165249826
91,27.01578057284016
2,1, 5, 3, 0,23,10.00,20.00,Friday
86,28.68546764133795
87,28.857453363054149
88,28.369986577326104
89,27.616562632586729
90,27.604638300312346
91,27.607466264632849
2,1, 5, 3, 0,23,20.00,30.00,Friday
86,28.67183961191651
87,28.825352755264633
88,28.477564296789767
89,27.586347822450546
90,27.56975927118846
91,27.069106647378029
2,1, 5, 3, 0,23,30.00,40.00,Friday
86,28.63651874185124
87,28.772645440395995
88,27.92778484980665
89,27.556626571465985
90,27.535213326921274
91,26.500314958170834
2,1, 5, 3, 0,23,40.00,50.00,Friday
86,28.59676302270182
87,28.707098816600273
88,27.722609593781504
89,27.520967324198
90,27.494207605829179
91,26.718069650532887
2,1, 5, 3, 0,23,50.00,60.00,Friday
86,28.593504219381843
87,28.688486928639287
88,27.943425980506519
89,27.49082989262512
90,27.459133113977154
91,27.10045183320905
2,1, 5, 3, 0,24, 0.00,10.00,Friday
86,28.585836519057655
87,28.6584280210344
88,28.172729128415054
89,27.457299112167193
90,27.420819371780064
91,26.95244416681597
2,1, 5, 3, 0,24,10.00,20.00,Friday
86,28.56528068964747
87,28.61238726999358
88,28.061556248378577
89,27.42150887970147
90,27.379544948493117
91,26.956068778730079
2,1, 5, 3, 0,24,20.00,30.00,Friday
86,28.549516556004478
87,28.58512403226176
88,27.740699040080956
89,27.394600539502215
90,27.347569364914997
91,26.427890508129349
2,1, 5, 3, 0,24,30.00,40.00,Friday
86,28.5293487507074
87,28.5460160722487
88,27.471170280497039
89,27.36234285843673
90,27.309827499274907
91,26.27091343499855
2,1, 5, 3, 0,24,40.00,50.00,Friday
86,28.52442135452847
87,28.526928077661588
88,28.03796047958758
89,27.332204203861335
90,27.274124166708647
91,26.71532323738134
2,1, 5, 3, 0,24,50.00,60.00,Friday
86,28.50914007164093
87,28.492958481436565
88,28.06201591047378
89,27.300699914279894
90,27.23713655858128
91,26.741913811565288
2,2, 5, 4, 0, 1, 0.00,10.00,Saturday
86,28.48548180237409
87,28.458391504987494
88,27.645029254355518
89,27.272826639897823
90,27.203670908326985
91,26.338344580934785
2,2, 5, 4, 0, 1,10.00,20.00,Saturday
86,28.434584594571576
87,28.384427306161706
88,27.213874946025709
89,27.240537331170289
90,27.165654054562894
91,25.990513651778316
2,2, 5, 4, 0, 1,20.00,30.00,Saturday
86,28.38983420001575
87,28.320261895479566
88,26.9614680670817
89,27.21244111299202
90,27.131812982880044
91,25.797552698557007
2,2, 5, 4, 0, 1,30.00,40.00,Saturday
86,28.353185440299208
87,28.268982927616645
88,26.97458195484391
89,27.184715709000515
90,27.098043218109468
91,25.808819521095395
2,2, 5, 4, 0, 1,40.00,50.00,Saturday
86,28.328742287833735
87,28.23221455207224
88,27.05716324516282
89,27.156370220293434
90,27.063493751075336
91,25.926719303190475
2,2, 5, 4, 0, 1,50.00,60.00,Saturday
86,28.30986607963791
87,28.20179183098064
88,27.112905818042639
89,27.127612855156344
90,27.028401400085273
91,26.03932429593625
2,2, 5, 4, 0, 2, 0.00,10.00,Saturday
86,28.30172524061214
87,28.188107757808927
88,27.289877451475463
89,27.101470602690236
90,26.997011036235674
91,26.6914463285355
2,2, 5, 4, 0, 2,10.00,20.00,Saturday
86,28.285856858017995
87,28.163382257628663
88,27.557218130111538
89,27.070938448819054
90,26.961371890347225
91,26.084039511808969
2,2, 5, 4, 0, 2,20.00,30.00,Saturday
86,28.263198821282637
87,28.127992646706124
88,27.741567214151563
89,27.037014781589794
90,26.922242082173744
91,26.11610012962659
2,2, 5, 4, 0, 2,30.00,40.00,Saturday
86,28.231198622154677
87,28.08335089328626
88,27.61879973965821
89,27.002392941964179
90,26.882682548465188
91,26.14062726160346
2,2, 5, 4, 0, 2,40.00,50.00,Saturday
86,28.200660070598997
87,28.04165953945736
88,27.469936363599428
89,26.971097245864369
90,26.846616868263756
91,26.172436422211957
2,2, 5, 4, 0, 2,50.00,60.00,Saturday
86,28.17358804270785
87,28.003354049844505
88,27.482284875234034
89,26.94080476973572
90,26.811176196877509
91,25.989163111646293
2,2, 5, 4, 0, 3, 0.00,10.00,Saturday
86,28.138133340627708
87,27.956802724483614
88,27.21208992256632
89,26.910175335904524
90,26.775168257391039
91,26.281449737335639
2,2, 5, 4, 0, 3,10.00,20.00,Saturday
86,28.106708154154675
87,27.919955696304635
88,26.982950658569423
89,26.883501208399918
90,26.74366668056027
91,26.32069260653664
2,2, 5, 4, 0, 3,20.00,30.00,Saturday
86,28.04310266325448
87,27.840051950266415
88,26.57790918292235
89,26.849445765442405
90,26.70376451845903
91,25.650653040734676
2,2, 5, 4, 0, 3,30.00,40.00,Saturday
86,27.99033934630575
87,27.771170755207373
88,26.445591542015675
89,26.817515228769218
90,26.666365119216928
91,25.732524377653154
2,2, 5, 4, 0, 3,40.00,50.00,Saturday
86,27.971774362045659
87,27.7472959594437
88,26.490308581253616
89,26.786681158919273
90,26.630447683956978
91,26.03375960217558
2,2, 5, 4, 0, 3,50.00,60.00,Saturday
86,27.926237847737207
87,27.693149412851239
88,26.329437948406285
89,26.752542899430446
90,26.591147313178458
91,25.79680928540294
2,2, 5, 4, 0, 4, 0.00,10.00,Saturday
86,27.876863571445705
87,27.63589733029015
88,26.03198389037287
89,26.71703502920827
90,26.550468603370505
91,26.039486005355799
2,2, 5, 4, 0, 4,10.00,20.00,Saturday
86,27.822344670124534
87,27.57254956264766
88,25.658449242955919
89,26.679395913393038
90,26.507776611687779
91,24.57217207318367
2,2, 5, 4, 0, 4,20.00,30.00,Saturday
86,27.75410598217799
87,27.49092429068472
88,25.485689840851646
89,26.636033856888344
90,26.45890767696332
91,24.60112016143994
2,2, 5, 4, 0, 4,30.00,40.00,Saturday
86,27.696528168715184
87,27.41775693144513
88,25.78239623222652
89,26.58841977757428
90,26.40572931522162
91,24.45573001553122
2,2, 5, 4, 0, 4,40.00,50.00,Saturday
86,27.64959054547192
87,27.357987877432899
88,25.52105237931324
89,26.540724422437778
90,26.35288781498113
91,24.56930366002975
2,2, 5, 4, 0, 4,50.00,60.00,Saturday
86,27.622076218901634
87,27.320098015399773
88,25.404005155945908
89,26.49084392939002
90,26.297876119254999
91,24.8365605420932
2,2, 5, 4, 0, 5, 0.00,10.00,Saturday
86,27.592720932826514
87,27.2843956250614
88,25.56501966770106
89,26.441466269741495
90,26.24350527480423
91,24.23520035728177
2,2, 5, 4, 0, 5,10.00,20.00,Saturday
86,27.53403891107955
87,27.21262437345488
88,25.267055282258466
89,26.3866498361974
90,26.183518768241677
91,25.105139398051905
2,2, 5, 4, 0, 5,20.00,30.00,Saturday
86,27.523138218971839
87,27.195382526628117
88,25.264672310125009
89,26.335841610697864
90,26.127774923218739
91,25.431185021382328
2,2, 5, 4, 0, 5,30.00,40.00,Saturday
86,27.480792734524216
87,27.137893721482244
88,25.146391659012609
89,26.271837445853703
90,26.057997480054714
91,24.265087355818495
2,2, 5, 4, 0, 5,40.00,50.00,Saturday
86,27.426786163164058
87,27.069587803157089
88,25.07451359475658
89,26.213231225529719
90,25.994063583785559
91,24.557796171161458
2,2, 5, 4, 0, 5,50.00,60.00,Saturday
86,27.392794785038015
87,27.02987048143
88,24.92895983397489
89,26.16046726499035
90,25.936433777293993
91,25.06623767323655
2,2, 5, 4, 0, 6, 0.00,10.00,Saturday
86,27.32994785464608
87,26.951773970750727
88,24.73108525701023
89,26.097232406791919
90,25.86773376092099
91,23.99967334807306